<?xml version="1.0" encoding="UTF-8"?>

<!-- generated on 2025-07-07 08:37:14 by Eclipse SUMO sumo Version v1_22_0+1225-450f2e124d0
<sumoConfiguration xmlns:xsi="http://www.w3.org/2001/XMLSchema-instance" xsi:noNamespaceSchemaLocation="http://sumo.dlr.de/xsd/sumoConfiguration.xsd">

    <input>
        <net-file value="/home/juanpablo/Desktop/cuenca-flow-optimizer/sumo_files/osm.net_actuated.xml"/>
        <route-files value="/home/juanpablo/Desktop/cuenca-flow-optimizer/sumo_files/generated_routes_medium_extended.rou.xml"/>
        <additional-files value="/home/juanpablo/Desktop/cuenca-flow-optimizer/sumo_files/osm.poly.xml.gz,/home/juanpablo/Desktop/cuenca-flow-optimizer/sumo_files/output.add.xml"/>
    </input>

    <output>
        <emission-output value="/home/juanpablo/Desktop/cuenca-flow-optimizer/experiments/actuated_medium_extended_09/emissions.xml"/>
        <tripinfo-output value="/home/juanpablo/Desktop/cuenca-flow-optimizer/experiments/actuated_medium_extended_09/tripinfo.xml"/>
        <statistic-output value="/home/juanpablo/Desktop/cuenca-flow-optimizer/experiments/actuated_medium_extended_09/stats.xml"/>
    </output>

    <time>
        <step-length value="1.0"/>
    </time>

    <processing>
        <ignore-route-errors value="true"/>
        <tls.actuated.jam-threshold value="30"/>
    </processing>

    <routing>
        <device.rerouting.probability value="0"/>
        <device.rerouting.adaptation-steps value="18"/>
        <device.rerouting.adaptation-interval value="10"/>
    </routing>

    <report>
        <verbose value="true"/>
        <duration-log.statistics value="true"/>
        <no-step-log value="true"/>
    </report>

    <traci_server>
        <remote-port value="60109"/>
    </traci_server>

    <random_number>
        <seed value="9"/>
    </random_number>

    <gui_only>
        <gui-settings-file value="/home/juanpablo/Desktop/cuenca-flow-optimizer/sumo_files/osm.view.xml"/>
        <quit-on-end value="true"/>
        <start value="true"/>
    </gui_only>

</sumoConfiguration>
-->

<mean-->

<meandata xmlns:xsi="http://www.w3.org/2001/XMLSchema-instance" xsi:noNamespaceSchemaLocation="http://sumo.dlr.de/xsd/meandata_file.xsd">
    <interval begin="0.00" end="3600.00" id="wizard_example">
        <edge id="1053072563" sampledSeconds="1097.14" traveltime="13.66" overlapTraveltime="14.19" density="2.82" laneDensity="2.82" occupancy="1.15" waitingTime="0.00" timeLoss="52.52" speed="7.90" speedRelative="0.95" departed="0" arrived="78" entered="78" left="0" laneChangedFrom="0" laneChangedTo="0"/>
        <edge id="1053199270" sampledSeconds="0.00" departed="0" arrived="0" entered="0" left="0" laneChangedFrom="0" laneChangedTo="0"/>
        <edge id="1081353722#1" sampledSeconds="0.00" departed="0" arrived="0" entered="0" left="0" laneChangedFrom="0" laneChangedTo="0"/>
        <edge id="1081353722#2" sampledSeconds="0.00" departed="0" arrived="0" entered="0" left="0" laneChangedFrom="0" laneChangedTo="0"/>
        <edge id="1081353722#3" sampledSeconds="0.00" departed="0" arrived="0" entered="0" left="0" laneChangedFrom="0" laneChangedTo="0"/>
        <edge id="1081353722#4" sampledSeconds="0.00" departed="0" arrived="0" entered="0" left="0" laneChangedFrom="0" laneChangedTo="0"/>
        <edge id="1081353722#5" sampledSeconds="0.00" departed="0" arrived="0" entered="0" left="0" laneChangedFrom="0" laneChangedTo="0"/>
        <edge id="1081353722#6" sampledSeconds="0.00" departed="0" arrived="0" entered="0" left="0" laneChangedFrom="0" laneChangedTo="0"/>
        <edge id="1081353722#7" sampledSeconds="0.00" departed="0" arrived="0" entered="0" left="0" laneChangedFrom="0" laneChangedTo="0"/>
        <edge id="1081353722#8" sampledSeconds="0.00" departed="0" arrived="0" entered="0" left="0" laneChangedFrom="0" laneChangedTo="0"/>
        <edge id="1175780997" sampledSeconds="0.00" departed="0" arrived="0" entered="0" left="0" laneChangedFrom="0" laneChangedTo="0"/>
        <edge id="1296513962#0" sampledSeconds="0.00" departed="0" arrived="0" entered="0" left="0" laneChangedFrom="0" laneChangedTo="0"/>
        <edge id="1296513962#1" sampledSeconds="0.00" departed="0" arrived="0" entered="0" left="0" laneChangedFrom="0" laneChangedTo="0"/>
        <edge id="1296513963" sampledSeconds="0.00" departed="0" arrived="0" entered="0" left="0" laneChangedFrom="0" laneChangedTo="0"/>
        <edge id="1296513964" sampledSeconds="0.00" departed="0" arrived="0" entered="0" left="0" laneChangedFrom="0" laneChangedTo="0"/>
        <edge id="1296513965" sampledSeconds="0.00" departed="0" arrived="0" entered="0" left="0" laneChangedFrom="0" laneChangedTo="0"/>
        <edge id="1296513967" sampledSeconds="0.00" departed="0" arrived="0" entered="0" left="0" laneChangedFrom="0" laneChangedTo="0"/>
        <edge id="1296513968" sampledSeconds="0.00" departed="0" arrived="0" entered="0" left="0" laneChangedFrom="0" laneChangedTo="0"/>
        <edge id="1296513969" sampledSeconds="0.00" departed="0" arrived="0" entered="0" left="0" laneChangedFrom="0" laneChangedTo="0"/>
        <edge id="1296513970" sampledSeconds="0.00" departed="0" arrived="0" entered="0" left="0" laneChangedFrom="0" laneChangedTo="0"/>
        <edge id="1296513971" sampledSeconds="0.00" departed="0" arrived="0" entered="0" left="0" laneChangedFrom="0" laneChangedTo="0"/>
        <edge id="304456533" sampledSeconds="0.00" departed="0" arrived="0" entered="0" left="0" laneChangedFrom="0" laneChangedTo="0"/>
        <edge id="337277951#1" sampledSeconds="1541.93" traveltime="4.86" overlapTraveltime="5.40" density="11.81" laneDensity="5.90" occupancy="2.21" waitingTime="0.00" timeLoss="144.98" speed="7.49" speedRelative="0.90" departed="0" arrived="26" entered="286" left="260" laneChangedFrom="52" laneChangedTo="52"/>
        <edge id="337277951#2" sampledSeconds="171.19" traveltime="0.12" overlapTraveltime="0.66" density="52.26" laneDensity="26.13" occupancy="1.95" waitingTime="0.00" timeLoss="10.29" speed="7.76" speedRelative="0.93" departed="0" arrived="0" entered="260" left="260" laneChangedFrom="0" laneChangedTo="0"/>
        <edge id="337277951#3" sampledSeconds="1711.67" traveltime="5.80" overlapTraveltime="6.61" density="12.25" laneDensity="6.13" occupancy="2.31" waitingTime="69.00" timeLoss="359.02" speed="6.50" speedRelative="0.78" departed="0" arrived="26" entered="260" left="234" laneChangedFrom="0" laneChangedTo="0"/>
        <edge id="337277951#4" sampledSeconds="703.99" traveltime="2.11" overlapTraveltime="3.01" density="31.80" laneDensity="15.90" occupancy="4.82" waitingTime="143.00" timeLoss="374.06" speed="3.44" speedRelative="0.41" departed="0" arrived="0" entered="234" left="234" laneChangedFrom="0" laneChangedTo="0"/>
        <edge id="337277957#0" sampledSeconds="1072.70" traveltime="13.36" overlapTraveltime="13.89" density="2.82" laneDensity="1.41" occupancy="0.57" waitingTime="0.00" timeLoss="50.31" speed="7.90" speedRelative="0.95" departed="0" arrived="78" entered="78" left="0" laneChangedFrom="13" laneChangedTo="13"/>
        <edge id="337277970#1" sampledSeconds="3731.44" traveltime="13.50" overlapTraveltime="14.37" density="13.09" laneDensity="6.55" occupancy="2.62" waitingTime="360.00" timeLoss="1094.60" speed="5.80" speedRelative="0.70" departed="0" arrived="26" entered="260" left="234" laneChangedFrom="31" laneChangedTo="31"/>
        <edge id="337277973#0" sampledSeconds="300.56" traveltime="0.65" overlapTraveltime="1.28" density="21.41" laneDensity="10.70" occupancy="2.16" waitingTime="0.00" timeLoss="69.98" speed="6.31" speedRelative="0.76" departed="0" arrived="0" entered="234" left="234" laneChangedFrom="0" laneChangedTo="0"/>
        <edge id="337277973#1" sampledSeconds="2914.41" traveltime="11.75" overlapTraveltime="12.53" density="10.53" laneDensity="5.26" occupancy="2.10" waitingTime="151.00" timeLoss="627.37" speed="6.47" speedRelative="0.78" departed="0" arrived="78" entered="234" left="156" laneChangedFrom="30" laneChangedTo="30"/>
        <edge id="337277981#1" sampledSeconds="1168.91" traveltime="5.89" overlapTraveltime="6.42" density="7.07" laneDensity="3.54" occupancy="1.36" waitingTime="0.00" timeLoss="68.53" speed="7.80" speedRelative="0.94" departed="0" arrived="0" entered="182" left="182" laneChangedFrom="52" laneChangedTo="52"/>
        <edge id="337277981#2" sampledSeconds="2207.09" traveltime="11.14" overlapTraveltime="12.13" density="15.70" laneDensity="7.85" occupancy="3.10" waitingTime="807.00" timeLoss="1253.28" speed="3.57" speedRelative="0.43" departed="0" arrived="0" entered="182" left="182" laneChangedFrom="0" laneChangedTo="0"/>
        <edge id="337277984#0" sampledSeconds="856.44" traveltime="10.70" overlapTraveltime="11.10" density="2.19" laneDensity="1.09" occupancy="0.44" waitingTime="0.00" timeLoss="56.86" speed="10.19" speedRelative="0.92" departed="0" arrived="78" entered="78" left="0" laneChangedFrom="10" laneChangedTo="10"/>
        <edge id="402944900" sampledSeconds="0.00" departed="0" arrived="0" entered="0" left="0" laneChangedFrom="0" laneChangedTo="0"/>
        <edge id="40668087#1" sampledSeconds="5076.49" traveltime="28.17" overlapTraveltime="29.03" density="13.33" laneDensity="13.33" occupancy="5.52" waitingTime="1218.00" timeLoss="2741.20" speed="3.79" speedRelative="0.45" departed="182" arrived="0" entered="0" left="182" laneChangedFrom="0" laneChangedTo="0"/>
        <edge id="42143912#3" sampledSeconds="0.00" departed="0" arrived="0" entered="0" left="0" laneChangedFrom="0" laneChangedTo="0"/>
        <edge id="42143912#4" sampledSeconds="0.00" departed="0" arrived="0" entered="0" left="0" laneChangedFrom="0" laneChangedTo="0"/>
        <edge id="42143912#5" sampledSeconds="1877.17" traveltime="18.87" overlapTraveltime="19.78" density="11.59" laneDensity="11.59" occupancy="4.74" waitingTime="547.00" timeLoss="1316.03" speed="2.49" speedRelative="0.30" departed="104" arrived="0" entered="0" left="104" laneChangedFrom="0" laneChangedTo="0"/>
        <edge id="48903210#0" sampledSeconds="0.00" departed="0" arrived="0" entered="0" left="0" laneChangedFrom="0" laneChangedTo="0"/>
        <edge id="48903210#1" sampledSeconds="0.00" departed="0" arrived="0" entered="0" left="0" laneChangedFrom="0" laneChangedTo="0"/>
        <edge id="49217102" sampledSeconds="3721.14" traveltime="28.92" overlapTraveltime="29.79" density="9.81" laneDensity="9.81" occupancy="4.06" waitingTime="1031.00" timeLoss="2060.14" speed="3.68" speedRelative="0.44" departed="130" arrived="0" entered="0" left="130" laneChangedFrom="0" laneChangedTo="0"/>
        <edge id="542428845#0" sampledSeconds="1429.36" traveltime="13.37" overlapTraveltime="13.90" density="3.82" laneDensity="3.82" occupancy="1.55" waitingTime="0.00" timeLoss="79.29" speed="7.78" speedRelative="0.93" departed="0" arrived="104" entered="104" left="0" laneChangedFrom="0" laneChangedTo="0"/>
        <edge id="567060312" sampledSeconds="0.00" departed="0" arrived="0" entered="0" left="0" laneChangedFrom="0" laneChangedTo="0"/>
        <edge id="567060313" sampledSeconds="0.00" departed="0" arrived="0" entered="0" left="0" laneChangedFrom="0" laneChangedTo="0"/>
        <edge id="567060325" sampledSeconds="0.00" departed="0" arrived="0" entered="0" left="0" laneChangedFrom="0" laneChangedTo="0"/>
        <edge id="567060342#0" sampledSeconds="644.28" traveltime="8.79" overlapTraveltime="9.29" density="5.17" laneDensity="5.17" occupancy="2.10" waitingTime="0.00" timeLoss="318.75" speed="4.18" speedRelative="0.50" departed="78" arrived="0" entered="0" left="78" laneChangedFrom="0" laneChangedTo="0"/>
        <edge id="567060342#1" sampledSeconds="1945.79" traveltime="23.76" overlapTraveltime="24.95" density="8.25" laneDensity="8.25" occupancy="3.35" waitingTime="941.00" timeLoss="1288.32" speed="2.80" speedRelative="0.34" departed="0" arrived="0" entered="78" left="78" laneChangedFrom="0" laneChangedTo="0"/>
    <    <interv    <interval begin="3600.00" end="7200.00" id="wizard_example">
        <edge id="1053072563" sampledSeconds="1560.16" traveltime="14.07" overlapTraveltime="14.61" density="4.01" laneDensity="4.01" occupancy="1.63" waitingTime="0.00" timeLoss="91.85" speed="7.68" speedRelative="0.92" departed="0" arrived="108" entered="108" left="0" laneChangedFrom="0" laneChangedTo="0"/>
        <edge id="1053199270" sampledSeconds="0.00" departed="0" arrived="0" entered="0" left="0" laneChangedFrom="0" laneChangedTo="0"/>
        <edge id="1081353722#1" sampledSeconds="0.00" departed="0" arrived="0" entered="0" left="0" laneChangedFrom="0" laneChangedTo="0"/>
        <edge id="1081353722#2" sampledSeconds="0.00" departed="0" arrived="0" entered="0" left="0" laneChangedFrom="0" laneChangedTo="0"/>
        <edge id="1081353722#3" sampledSeconds="0.00" departed="0" arrived="0" entered="0" left="0" laneChangedFrom="0" laneChangedTo="0"/>
        <edge id="1081353722#4" sampledSeconds="0.00" departed="0" arrived="0" entered="0" left="0" laneChangedFrom="0" laneChangedTo="0"/>
        <edge id="1081353722#5" sampledSeconds="0.00" departed="0" arrived="0" entered="0" left="0" laneChangedFrom="0" laneChangedTo="0"/>
        <edge id="1081353722#6" sampledSeconds="0.00" departed="0" arrived="0" entered="0" left="0" laneChangedFrom="0" laneChangedTo="0"/>
        <edge id="1081353722#7" sampledSeconds="0.00" departed="0" arrived="0" entered="0" left="0" laneChangedFrom="0" laneChangedTo="0"/>
        <edge id="1081353722#8" sampledSeconds="0.00" departed="0" arrived="0" entered="0" left="0" laneChangedFrom="0" laneChangedTo="0"/>
        <edge id="1175780997" sampledSeconds="0.00" departed="0" arrived="0" entered="0" left="0" laneChangedFrom="0" laneChangedTo="0"/>
        <edge id="1296513962#0" sampledSeconds="0.00" departed="0" arrived="0" entered="0" left="0" laneChangedFrom="0" laneChangedTo="0"/>
        <edge id="1296513962#1" sampledSeconds="0.00" departed="0" arrived="0" entered="0" left="0" laneChangedFrom="0" laneChangedTo="0"/>
        <edge id="1296513963" sampledSeconds="0.00" departed="0" arrived="0" entered="0" left="0" laneChangedFrom="0" laneChangedTo="0"/>
        <edge id="1296513964" sampledSeconds="0.00" departed="0" arrived="0" entered="0" left="0" laneChangedFrom="0" laneChangedTo="0"/>
        <edge id="1296513965" sampledSeconds="0.00" departed="0" arrived="0" entered="0" left="0" laneChangedFrom="0" laneChangedTo="0"/>
        <edge id="1296513967" sampledSeconds="0.00" departed="0" arrived="0" entered="0" left="0" laneChangedFrom="0" laneChangedTo="0"/>
        <edge id="1296513968" sampledSeconds="0.00" departed="0" arrived="0" entered="0" left="0" laneChangedFrom="0" laneChangedTo="0"/>
        <edge id="1296513969" sampledSeconds="0.00" departed="0" arrived="0" entered="0" left="0" laneChangedFrom="0" laneChangedTo="0"/>
        <edge id="1296513970" sampledSeconds="0.00" departed="0" arrived="0" entered="0" left="0" laneChangedFrom="0" laneChangedTo="0"/>
        <edge id="1296513971" sampledSeconds="0.00" departed="0" arrived="0" entered="0" left="0" laneChangedFrom="0" laneChangedTo="0"/>
        <edge id="304456533" sampledSeconds="0.00" departed="0" arrived="0" entered="0" left="0" laneChangedFrom="0" laneChangedTo="0"/>
        <edge id="337277951#1" sampledSeconds="2117.99" traveltime="4.83" overlapTraveltime="5.36" density="16.22" laneDensity="8.11" occupancy="3.04" waitingTime="0.00" timeLoss="190.15" speed="7.55" speedRelative="0.91" departed="0" arrived="36" entered="396" left="360" laneChangedFrom="72" laneChangedTo="72"/>
        <edge id="337277951#2" sampledSeconds="235.12" traveltime="0.12" overlapTraveltime="0.65" density="71.77" laneDensity="35.88" occupancy="2.68" waitingTime="0.00" timeLoss="12.86" speed="7.82" speedRelative="0.94" departed="0" arrived="0" entered="360" left="360" laneChangedFrom="0" laneChangedTo="0"/>
        <edge id="337277951#3" sampledSeconds="2482.93" traveltime="6.07" overlapTraveltime="6.92" density="17.78" laneDensity="8.89" occupancy="3.36" waitingTime="148.00" timeLoss="613.79" speed="6.21" speedRelative="0.75" departed="0" arrived="36" entered="360" left="324" laneChangedFrom="0" laneChangedTo="0"/>
        <edge id="337277951#4" sampledSeconds="1094.47" traveltime="2.42" overlapTraveltime="3.38" density="49.43" laneDensity="24.72" occupancy="7.65" waitingTime="243.00" timeLoss="640.76" speed="3.06" speedRelative="0.37" departed="0" arrived="0" entered="324" left="324" laneChangedFrom="0" laneChangedTo="0"/>
        <edge id="337277957#0" sampledSeconds="1478.27" traveltime="13.31" overlapTraveltime="13.84" density="3.89" laneDensity="1.94" occupancy="0.79" waitingTime="0.00" timeLoss="69.70" speed="7.94" speedRelative="0.95" departed="0" arrived="108" entered="108" left="0" laneChangedFrom="16" laneChangedTo="16"/>
        <edge id="337277970#1" sampledSeconds="5801.02" traveltime="15.25" overlapTraveltime="16.14" density="20.36" laneDensity="10.18" occupancy="4.09" waitingTime="866.00" timeLoss="2159.00" speed="5.16" speedRelative="0.62" departed="0" arrived="36" entered="360" left="324" laneChangedFrom="48" laneChangedTo="48"/>
        <edge id="337277973#0" sampledSeconds="416.80" traveltime="0.65" overlapTraveltime="1.29" density="29.69" laneDensity="14.84" occupancy="2.99" waitingTime="0.00" timeLoss="101.52" speed="6.30" speedRelative="0.76" departed="0" arrived="0" entered="324" left="324" laneChangedFrom="0" laneChangedTo="0"/>
        <edge id="337277973#1" sampledSeconds="3670.75" traveltime="10.71" overlapTraveltime="11.38" density="13.26" laneDensity="6.63" occupancy="2.63" waitingTime="71.00" timeLoss="537.97" speed="7.13" speedRelative="0.86" departed="0" arrived="108" entered="324" left="216" laneChangedFrom="33" laneChangedTo="33"/>
        <edge id="337277981#1" sampledSeconds="1601.24" traveltime="5.83" overlapTraveltime="6.35" density="9.69" laneDensity="4.84" occupancy="1.86" waitingTime="0.00" timeLoss="87.17" speed="7.89" speedRelative="0.95" departed="0" arrived="0" entered="252" left="252" laneChangedFrom="72" laneChangedTo="72"/>
        <edge id="337277981#2" sampledSeconds="3292.24" traveltime="12.04" overlapTraveltime="13.06" density="23.42" laneDensity="11.71" occupancy="4.64" waitingTime="1253.00" timeLoss="1979.92" speed="3.31" speedRelative="0.40" departed="0" arrived="0" entered="252" left="252" laneChangedFrom="0" laneChangedTo="0"/>
        <edge id="337277984#0" sampledSeconds="1165.64" traveltime="10.49" overlapTraveltime="10.88" density="2.97" laneDensity="1.49" occupancy="0.60" waitingTime="0.00" timeLoss="67.83" speed="10.39" speedRelative="0.94" departed="0" arrived="108" entered="108" left="0" laneChangedFrom="11" laneChangedTo="11"/>
        <edge id="402944900" sampledSeconds="0.00" departed="0" arrived="0" entered="0" left="0" laneChangedFrom="0" laneChangedTo="0"/>
        <edge id="40668087#1" sampledSeconds="6571.63" traveltime="26.25" overlapTraveltime="27.14" density="17.26" laneDensity="17.26" occupancy="7.13" waitingTime="1305.00" timeLoss="3336.97" speed="4.05" speedRelative="0.49" departed="252" arrived="0" entered="0" left="252" laneChangedFrom="0" laneChangedTo="0"/>
        <edge id="42143912#3" sampledSeconds="0.00" departed="0" arrived="0" entered="0" left="0" laneChangedFrom="0" laneChangedTo="0"/>
        <edge id="42143912#4" sampledSeconds="0.00" departed="0" arrived="0" entered="0" left="0" laneChangedFrom="0" laneChangedTo="0"/>
        <edge id="42143912#5" sampledSeconds="2058.72" traveltime="14.79" overlapTraveltime="15.67" density="12.71" laneDensity="12.71" occupancy="5.18" waitingTime="311.00" timeLoss="1281.34" speed="3.14" speedRelative="0.38" departed="144" arrived="0" entered="0" left="144" laneChangedFrom="0" laneChangedTo="0"/>
        <edge id="48903210#0" sampledSeconds="0.00" departed="0" arrived="0" entered="0" left="0" laneChangedFrom="0" laneChangedTo="0"/>
        <edge id="48903210#1" sampledSeconds="0.00" departed="0" arrived="0" entered="0" left="0" laneChangedFrom="0" laneChangedTo="0"/>
        <edge id="49217102" sampledSeconds="5301.29" traveltime="29.71" overlapTraveltime="30.65" density="13.97" laneDensity="13.97" occupancy="5.78" waitingTime="1468.00" timeLoss="3016.62" speed="3.58" speedRelative="0.43" departed="180" arrived="0" entered="0" left="180" laneChangedFrom="0" laneChangedTo="0"/>
        <edge id="542428845#0" sampledSeconds="1964.12" traveltime="13.34" overlapTraveltime="13.87" density="5.25" laneDensity="5.25" occupancy="2.13" waitingTime="0.00" timeLoss="119.30" speed="7.80" speedRelative="0.94" departed="0" arrived="143" entered="144" left="0" laneChangedFrom="0" laneChangedTo="0"/>
        <edge id="567060312" sampledSeconds="0.00" departed="0" arrived="0" entered="0" left="0" laneChangedFrom="0" laneChangedTo="0"/>
        <edge id="567060313" sampledSeconds="0.00" departed="0" arrived="0" entered="0" left="0" laneChangedFrom="0" laneChangedTo="0"/>
        <edge id="567060325" sampledSeconds="0.00" departed="0" arrived="0" entered="0" left="0" laneChangedFrom="0" laneChangedTo="0"/>
        <edge id="567060342#0" sampledSeconds="900.88" traveltime="8.88" overlapTraveltime="9.38" density="7.23" laneDensity="7.23" occupancy="2.93" waitingTime="0.00" timeLoss="453.22" speed="4.14" speedRelative="0.50" departed="108" arrived="0" entered="0" left="108" laneChangedFrom="0" laneChangedTo="0"/>
        <edge id="567060342#1" sampledSeconds="2240.59" traveltime="19.66" overlapTraveltime="20.75" density="9.50" laneDensity="9.50" occupancy="3.84" waitingTime="924.00" timeLoss="1336.47" speed="3.36" speedRelative="0.40" departed="0" arrived="0" entered="108" left="108" laneChangedFrom="0" laneChangedTo="0"/>
    </interval>
    <interval begin="7200.00" end="10800.00" id="wizard_example">
        <edge id="1053072563" sampledSeconds="1972.81" traveltime="13.76" overlapTraveltime="14.28" density="5.08" laneDensity="5.08" occupancy="2.06" waitingTime="0.00" timeLoss="113.20" speed="7.85" speedRelative="0.94" departed="0" arrived="140" entered="140" left="0" laneChangedFrom="0" laneChangedTo="0"/>
        <edge id="1053199270" sampledSeconds="0.00" departed="0" arrived="0" entered="0" left="0" laneChangedFrom="0" laneChangedTo="0"/>
        <edge id="1081353722#1" sampledSeconds="0.00" departed="0" arrived="0" entered="0" left="0" laneChangedFrom="0" laneChangedTo="0"/>
        <edge id="1081353722#2" sampledSeconds="0.00" departed="0" arrived="0" entered="0" left="0" laneChangedFrom="0" laneChangedTo="0"/>
        <edge id="1081353722#3" sampledSeconds="0.00" departed="0" arrived="0" entered="0" left="0" laneChangedFrom="0" laneChangedTo="0"/>
        <edge id="1081353722#4" sampledSeconds="0.00" departed="0" arrived="0" entered="0" left="0" laneChangedFrom="0" laneChangedTo="0"/>
        <edge id="1081353722#5" sampledSeconds="0.00" departed="0" arrived="0" entered="0" left="0" laneChangedFrom="0" laneChangedTo="0"/>
        <edge id="1081353722#6" sampledSeconds="0.00" departed="0" arrived="0" entered="0" left="0" laneChangedFrom="0" laneChangedTo="0"/>
        <edge id="1081353722#7" sampledSeconds="0.00" departed="0" arrived="0" entered="0" left="0" laneChangedFrom="0" laneChangedTo="0"/>
        <edge id="1081353722#8" sampledSeconds="0.00" departed="0" arrived="0" entered="0" left="0" laneChangedFrom="0" laneChangedTo="0"/>
        <edge id="1175780997" sampledSeconds="0.00" departed="0" arrived="0" entered="0" left="0" laneChangedFrom="0" laneChangedTo="0"/>
        <edge id="1296513962#0" sampledSeconds="0.00" departed="0" arrived="0" entered="0" left="0" laneChangedFrom="0" laneChangedTo="0"/>
        <edge id="1296513962#1" sampledSeconds="0.00" departed="0" arrived="0" entered="0" left="0" laneChangedFrom="0" laneChangedTo="0"/>
        <edge id="1296513963" sampledSeconds="0.00" departed="0" arrived="0" entered="0" left="0" laneChangedFrom="0" laneChangedTo="0"/>
        <edge id="1296513964" sampledSeconds="0.00" departed="0" arrived="0" entered="0" left="0" laneChangedFrom="0" laneChangedTo="0"/>
        <edge id="1296513965" sampledSeconds="0.00" departed="0" arrived="0" entered="0" left="0" laneChangedFrom="0" laneChangedTo="0"/>
        <edge id="1296513967" sampledSeconds="0.00" departed="0" arrived="0" entered="0" left="0" laneChangedFrom="0" laneChangedTo="0"/>
        <edge id="1296513968" sampledSeconds="0.00" departed="0" arrived="0" entered="0" left="0" laneChangedFrom="0" laneChangedTo="0"/>
        <edge id="1296513969" sampledSeconds="0.00" departed="0" arrived="0" entered="0" left="0" laneChangedFrom="0" laneChangedTo="0"/>
        <edge id="1296513970" sampledSeconds="0.00" departed="0" arrived="0" entered="0" left="0" laneChangedFrom="0" laneChangedTo="0"/>
        <edge id="1296513971" sampledSeconds="0.00" departed="0" arrived="0" entered="0" left="0" laneChangedFrom="0" laneChangedTo="0"/>
        <edge id="304456533" sampledSeconds="0.00" departed="0" arrived="0" entered="0" left="0" laneChangedFrom="0" laneChangedTo="0"/>
        <edge id="337277951#1" sampledSeconds="2770.70" traveltime="4.84" overlapTraveltime="5.38" density="21.21" laneDensity="10.61" occupancy="3.98" waitingTime="0.00" timeLoss="248.63" speed="7.52" speedRelative="0.90" departed="0" arrived="46" entered="517" left="470" laneChangedFrom="94" laneChangedTo="94"/>
        <edge id="337277951#2" sampledSeconds="308.62" traveltime="0.12" overlapTraveltime="0.66" density="94.20" laneDensity="47.10" occupancy="3.52" waitingTime="0.00" timeLoss="18.33" speed="7.78" speedRelative="0.93" departed="0" arrived="0" entered="470" left="470" laneChangedFrom="0" laneChangedTo="0"/>
        <edge id="337277951#3" sampledSeconds="3389.32" traveltime="6.42" overlapTraveltime="7.25" density="24.26" laneDensity="12.13" occupancy="4.61" waitingTime="380.00" timeLoss="953.16" speed="5.93" speedRelative="0.71" departed="0" arrived="47" entered="469" left="421" laneChangedFrom="0" laneChangedTo="0"/>
        <edge id="337277951#4" sampledSeconds="1961.45" traveltime="3.70" overlapTraveltime="4.66" density="88.59" laneDensity="44.30" occupancy="15.09" waitingTime="865.00" timeLoss="1372.23" speed="2.22" speedRelative="0.27" departed="0" arrived="0" entered="421" left="421" laneChangedFrom="0" laneChangedTo="0"/>
        <edge id="337277957#0" sampledSeconds="1968.40" traveltime="13.70" overlapTraveltime="14.24" density="5.18" laneDensity="2.59" occupancy="1.05" waitingTime="0.00" timeLoss="104.16" speed="7.71" speedRelative="0.93" departed="0" arrived="139" entered="140" left="0" laneChangedFrom="16" laneChangedTo="16"/>
        <edge id="337277970#1" sampledSeconds="7385.95" traveltime="14.82" overlapTraveltime="15.77" density="25.92" laneDensity="12.96" occupancy="5.19" waitingTime="1072.00" timeLoss="2594.53" speed="5.28" speedRelative="0.63" departed="0" arrived="47" entered="469" left="422" laneChangedFrom="67" laneChangedTo="67"/>
        <edge id="337277973#0" sampledSeconds="539.78" traveltime="0.65" overlapTraveltime="1.28" density="38.45" laneDensity="19.22" occupancy="3.88" waitingTime="0.00" timeLoss="125.96" speed="6.31" speedRelative="0.76" departed="0" arrived="0" entered="421" left="421" laneChangedFrom="0" laneChangedTo="0"/>
        <edge id="337277973#1" sampledSeconds="5372.71" traveltime="12.12" overlapTraveltime="12.91" density="19.41" laneDensity="9.70" occupancy="3.87" waitingTime="472.00" timeLoss="1283.88" speed="6.28" speedRelative="0.75" departed="0" arrived="138" entered="421" left="279" laneChangedFrom="60" laneChangedTo="60"/>
        <edge id="337277981#1" sampledSeconds="2127.39" traveltime="5.97" overlapTraveltime="6.50" density="12.87" laneDensity="6.44" occupancy="2.47" waitingTime="0.00" timeLoss="127.33" speed="7.71" speedRelative="0.93" departed="0" arrived="0" entered="328" left="327" laneChangedFrom="93" laneChangedTo="93"/>
        <edge id="337277981#2" sampledSeconds="4106.57" traveltime="11.53" overlapTraveltime="12.56" density="29.22" laneDensity="14.61" occupancy="5.77" waitingTime="1520.00" timeLoss="2373.71" speed="3.44" speedRelative="0.41" departed="0" arrived="0" entered="327" left="327" laneChangedFrom="0" laneChangedTo="0"/>
        <edge id="337277984#0" sampledSeconds="1522.71" traveltime="10.65" overlapTraveltime="11.04" density="3.89" laneDensity="1.94" occupancy="0.79" waitingTime="0.00" timeLoss="117.11" speed="10.24" speedRelative="0.92" departed="0" arrived="139" entered="139" left="0" laneChangedFrom="11" laneChangedTo="11"/>
        <edge id="402944900" sampledSeconds="0.00" departed="0" arrived="0" entered="0" left="0" laneChangedFrom="0" laneChangedTo="0"/>
        <edge id="40668087#1" sampledSeconds="9800.71" traveltime="30.16" overlapTraveltime="31.00" density="25.74" laneDensity="25.74" occupancy="10.66" waitingTime="2786.00" timeLoss="5568.93" speed="3.55" speedRelative="0.43" departed="329" arrived="0" entered="0" left="329" laneChangedFrom="0" laneChangedTo="0"/>
        <edge id="42143912#3" sampledSeconds="0.00" departed="0" arrived="0" entered="0" left="0" laneChangedFrom="0" laneChangedTo="0"/>
        <edge id="42143912#4" sampledSeconds="0.00" departed="0" arrived="0" entered="0" left="0" laneChangedFrom="0" laneChangedTo="0"/>
        <edge id="42143912#5" sampledSeconds="3121.56" traveltime="17.29" overlapTraveltime="18.19" density="19.27" laneDensity="19.27" occupancy="7.87" waitingTime="635.00" timeLoss="2094.52" speed="2.70" speedRelative="0.32" departed="188" arrived="0" entered="0" left="188" laneChangedFrom="0" laneChangedTo="0"/>
        <edge id="48903210#0" sampledSeconds="0.00" departed="0" arrived="0" entered="0" left="0" laneChangedFrom="0" laneChangedTo="0"/>
        <edge id="48903210#1" sampledSeconds="0.00" departed="0" arrived="0" entered="0" left="0" laneChangedFrom="0" laneChangedTo="0"/>