<?xml version="1.0" encoding="UTF-8"?>

<!-- generated on 2025-06-21 23:29:07 by Eclipse SUMO sumo Version v1_22_0+1225-450f2e124d0
<sumoConfiguration xmlns:xsi="http://www.w3.org/2001/XMLSchema-instance" xsi:noNamespaceSchemaLocation="http://sumo.dlr.de/xsd/sumoConfiguration.xsd">

    <input>
        <net-file value="/home/juanpablo/Desktop/cuenca-flow-optimizer/sumo_files/osm.net_static.xml"/>
        <route-files value="/home/juanpablo/Desktop/cuenca-flow-optimizer/sumo_files/generated_routes_medium.rou.xml"/>
        <additional-files value="/home/juanpablo/Desktop/cuenca-flow-optimizer/sumo_files/osm.poly.xml.gz,/home/juanpablo/Desktop/cuenca-flow-optimizer/sumo_files/output.add.xml"/>
    </input>

    <output>
        <tripinfo-output value="/home/juanpablo/Desktop/cuenca-flow-optimizer/experiments/fuzzy_medium_00_1750566546/tripinfo.xml"/>
        <statistic-output value="/home/juanpablo/Desktop/cuenca-flow-optimizer/experiments/fuzzy_medium_00_1750566546/stats.xml"/>
    </output>

    <time>
        <step-length value="1.0"/>
    </time>

    <processing>
        <ignore-route-errors value="true"/>
        <tls.actuated.jam-threshold value="30"/>
    </processing>

    <routing>
        <device.rerouting.adaptation-steps value="18"/>
        <device.rerouting.adaptation-interval value="10"/>
    </routing>

    <report>
        <verbose value="true"/>
        <duration-log.statistics value="true"/>
        <no-step-log value="true"/>
    </report>

    <traci_server>
        <remote-port value="49331"/>
    </traci_server>

    <random_number>
        <seed value="0"/>
    </random_number>

    <gui_only>
        <gui-settings-file value="/home/juanpablo/Desktop/cuenca-flow-optimizer/sumo_files/osm.view.xml"/>
    </gui_only>

</sumoConfiguration>
-->

<meandata xmlns:xsi="http://www.w3.org/2001/XMLSchema-instance" xsi:noNamespaceSchemaLocation="http://sumo.dlr.de/xsd/meandata_file.xsd">
    <interval begin="0.00" end="3600.00" id="wizard_example">
        <edge id="1053072563" sampledSeconds="1126.07" traveltime="14.07" overlapTraveltime="14.61" density="2.90" laneDensity="2.90" occupancy="1.18" waitingTime="0.00" timeLoss="67.22" speed="7.68" speedRelative="0.92" departed="0" arrived="78" entered="78" left="0" laneChangedFrom="0" laneChangedTo="0"/>
        <edge id="1053199270" sampledSeconds="0.00" departed="0" arrived="0" entered="0" left="0" laneChangedFrom="0" laneChangedTo="0"/>
        <edge id="1081353722#1" sampledSeconds="0.00" departed="0" arrived="0" entered="0" left="0" laneChangedFrom="0" laneChangedTo="0"/>
        <edge id="1081353722#2" sampledSeconds="0.00" departed="0" arrived="0" entered="0" left="0" laneChangedFrom="0" laneChangedTo="0"/>
        <edge id="1081353722#3" sampledSeconds="0.00" departed="0" arrived="0" entered="0" left="0" laneChangedFrom="0" laneChangedTo="0"/>
        <edge id="1081353722#4" sampledSeconds="0.00" departed="0" arrived="0" entered="0" left="0" laneChangedFrom="0" laneChangedTo="0"/>
        <edge id="1081353722#5" sampledSeconds="0.00" departed="0" arrived="0" entered="0" left="0" laneChangedFrom="0" laneChangedTo="0"/>
        <edge id="1081353722#6" sampledSeconds="0.00" departed="0" arrived="0" entered="0" left="0" laneChangedFrom="0" laneChangedTo="0"/>
        <edge id="1081353722#7" sampledSeconds="0.00" departed="0" arrived="0" entered="0" left="0" laneChangedFrom="0" laneChangedTo="0"/>
        <edge id="1081353722#8" sampledSeconds="0.00" departed="0" arrived="0" entered="0" left="0" laneChangedFrom="0" laneChangedTo="0"/>
        <edge id="1175780997" sampledSeconds="0.00" departed="0" arrived="0" entered="0" left="0" laneChangedFrom="0" laneChangedTo="0"/>
        <edge id="1296513962#0" sampledSeconds="0.00" departed="0" arrived="0" entered="0" left="0" laneChangedFrom="0" laneChangedTo="0"/>
        <edge id="1296513962#1" sampledSeconds="0.00" departed="0" arrived="0" entered="0" left="0" laneChangedFrom="0" laneChangedTo="0"/>
        <edge id="1296513963" sampledSeconds="0.00" departed="0" arrived="0" entered="0" left="0" laneChangedFrom="0" laneChangedTo="0"/>
        <edge id="1296513964" sampledSeconds="0.00" departed="0" arrived="0" entered="0" left="0" laneChangedFrom="0" laneChangedTo="0"/>
        <edge id="1296513965" sampledSeconds="0.00" departed="0" arrived="0" entered="0" left="0" laneChangedFrom="0" laneChangedTo="0"/>
        <edge id="1296513967" sampledSeconds="0.00" departed="0" arrived="0" entered="0" left="0" laneChangedFrom="0" laneChangedTo="0"/>
        <edge id="1296513968" sampledSeconds="0.00" departed="0" arrived="0" entered="0" left="0" laneChangedFrom="0" laneChangedTo="0"/>
        <edge id="1296513969" sampledSeconds="0.00" departed="0" arrived="0" entered="0" left="0" laneChangedFrom="0" laneChangedTo="0"/>
        <edge id="1296513970" sampledSeconds="0.00" departed="0" arrived="0" entered="0" left="0" laneChangedFrom="0" laneChangedTo="0"/>
        <edge id="1296513971" sampledSeconds="0.00" departed="0" arrived="0" entered="0" left="0" laneChangedFrom="0" laneChangedTo="0"/>
        <edge id="304456533" sampledSeconds="0.00" departed="0" arrived="0" entered="0" left="0" laneChangedFrom="0" laneChangedTo="0"/>
        <edge id="337277951#1" sampledSeconds="1551.93" traveltime="4.90" overlapTraveltime="5.44" density="11.88" laneDensity="5.94" occupancy="2.23" waitingTime="0.00" timeLoss="136.48" speed="7.44" speedRelative="0.89" departed="0" arrived="26" entered="286" left="260" laneChangedFrom="52" laneChangedTo="52"/>
        <edge id="337277951#2" sampledSeconds="172.41" traveltime="0.12" overlapTraveltime="0.66" density="52.63" laneDensity="26.31" occupancy="1.97" waitingTime="0.00" timeLoss="9.58" speed="7.71" speedRelative="0.93" departed="0" arrived="0" entered="260" left="260" laneChangedFrom="0" laneChangedTo="0"/>
        <edge id="337277951#3" sampledSeconds="2217.50" traveltime="7.62" overlapTraveltime="8.56" density="15.88" laneDensity="7.94" occupancy="3.05" waitingTime="383.00" timeLoss="848.79" speed="5.03" speedRelative="0.60" departed="0" arrived="26" entered="260" left="234" laneChangedFrom="0" laneChangedTo="0"/>
        <edge id="337277951#4" sampledSeconds="1327.19" traveltime="4.61" overlapTraveltime="5.67" density="59.95" laneDensity="29.97" occupancy="10.42" waitingTime="637.00" timeLoss="995.06" speed="1.82" speedRelative="0.22" departed="0" arrived="0" entered="234" left="234" laneChangedFrom="0" laneChangedTo="0"/>
        <edge id="337277957#0" sampledSeconds="1084.84" traveltime="13.55" overlapTraveltime="14.07" density="2.85" laneDensity="1.43" occupancy="0.58" waitingTime="0.00" timeLoss="63.24" speed="7.80" speedRelative="0.94" departed="0" arrived="78" entered="78" left="0" laneChangedFrom="6" laneChangedTo="6"/>
        <edge id="337277970#1" sampledSeconds="5375.10" traveltime="19.69" overlapTraveltime="20.73" density="18.86" laneDensity="9.43" occupancy="3.82" waitingTime="1569.00" timeLoss="2712.77" speed="4.02" speedRelative="0.48" departed="0" arrived="26" entered="260" left="234" laneChangedFrom="40" laneChangedTo="40"/>
        <edge id="337277973#0" sampledSeconds="309.50" traveltime="0.67" overlapTraveltime="1.32" density="22.04" laneDensity="11.02" occupancy="2.22" waitingTime="0.00" timeLoss="76.43" speed="6.12" speedRelative="0.74" departed="0" arrived="0" entered="234" left="234" laneChangedFrom="0" laneChangedTo="0"/>
        <edge id="337277973#1" sampledSeconds="3940.13" traveltime="15.94" overlapTraveltime="16.94" density="14.23" laneDensity="7.12" occupancy="2.86" waitingTime="837.00" timeLoss="1626.80" speed="4.79" speedRelative="0.57" departed="0" arrived="78" entered="234" left="156" laneChangedFrom="50" laneChangedTo="50"/>
        <edge id="337277981#1" sampledSeconds="1198.89" traveltime="6.05" overlapTraveltime="6.59" density="7.25" laneDensity="3.63" occupancy="1.39" waitingTime="0.00" timeLoss="77.18" speed="7.61" speedRelative="0.91" departed="0" arrived="0" entered="182" left="182" laneChangedFrom="52" laneChangedTo="52"/>
        <edge id="337277981#2" sampledSeconds="2745.78" traveltime="13.87" overlapTraveltime="15.09" density="19.54" laneDensity="9.77" occupancy="3.88" waitingTime="1246.00" timeLoss="1773.58" speed="2.87" speedRelative="0.34" departed="0" arrived="0" entered="182" left="182" laneChangedFrom="0" laneChangedTo="0"/>
        <edge id="337277984#0" sampledSeconds="872.25" traveltime="10.92" overlapTraveltime="11.31" density="2.23" laneDensity="1.11" occupancy="0.45" waitingTime="0.00" timeLoss="78.37" speed="9.99" speedRelative="0.90" departed="0" arrived="77" entered="78" left="0" laneChangedFrom="3" laneChangedTo="3"/>
        <edge id="402944900" sampledSeconds="0.00" departed="0" arrived="0" entered="0" left="0" laneChangedFrom="0" laneChangedTo="0"/>
        <edge id="40668087#1" sampledSeconds="5001.91" traveltime="27.76" overlapTraveltime="28.60" density="13.14" laneDensity="13.14" occupancy="5.44" waitingTime="1043.00" timeLoss="2662.99" speed="3.84" speedRelative="0.46" departed="182" arrived="0" entered="0" left="182" laneChangedFrom="0" laneChangedTo="0"/>
        <edge id="42143912#3" sampledSeconds="0.00" departed="0" arrived="0" entered="0" left="0" laneChangedFrom="0" laneChangedTo="0"/>
        <edge id="42143912#4" sampledSeconds="0.00" departed="0" arrived="0" entered="0" left="0" laneChangedFrom="0" laneChangedTo="0"/>
        <edge id="42143912#5" sampledSeconds="1875.19" traveltime="18.88" overlapTraveltime="19.76" density="11.58" laneDensity="11.58" occupancy="4.74" waitingTime="536.00" timeLoss="1305.34" speed="2.49" speedRelative="0.30" departed="104" arrived="0" entered="0" left="104" laneChangedFrom="0" laneChangedTo="0"/>
        <edge id="48903210#0" sampledSeconds="0.00" departed="0" arrived="0" entered="0" left="0" laneChangedFrom="0" laneChangedTo="0"/>
        <edge id="48903210#1" sampledSeconds="0.00" departed="0" arrived="0" entered="0" left="0" laneChangedFrom="0" laneChangedTo="0"/>
        <edge id="49217102" sampledSeconds="3850.04" traveltime="29.97" overlapTraveltime="30.82" density="10.15" laneDensity="10.15" occupancy="4.20" waitingTime="1086.00" timeLoss="2170.35" speed="3.56" speedRelative="0.43" departed="130" arrived="0" entered="0" left="130" laneChangedFrom="0" laneChangedTo="0"/>
        <edge id="542428845#0" sampledSeconds="1447.51" traveltime="13.51" overlapTraveltime="14.04" density="3.87" laneDensity="3.87" occupancy="1.56" waitingTime="0.00" timeLoss="82.83" speed="7.70" speedRelative="0.92" departed="0" arrived="104" entered="104" left="0" laneChangedFrom="0" laneChangedTo="0"/>
        <edge id="567060312" sampledSeconds="0.00" departed="0" arrived="0" entered="0" left="0" laneChangedFrom="0" laneChangedTo="0"/>
        <edge id="567060313" sampledSeconds="0.00" departed="0" arrived="0" entered="0" left="0" laneChangedFrom="0" laneChangedTo="0"/>
        <edge id="567060325" sampledSeconds="0.00" departed="0" arrived="0" entered="0" left="0" laneChangedFrom="0" laneChangedTo="0"/>
        <edge id="567060342#0" sampledSeconds="651.75" traveltime="8.89" overlapTraveltime="9.40" density="5.23" laneDensity="5.23" occupancy="2.12" waitingTime="0.00" timeLoss="321.81" speed="4.13" speedRelative="0.50" departed="78" arrived="0" entered="0" left="78" laneChangedFrom="0" laneChangedTo="0"/>
        <edge id="567060342#1" sampledSeconds="1747.46" traveltime="21.31" overlapTraveltime="22.40" density="7.41" laneDensity="7.41" occupancy="3.00" waitingTime="769.00" timeLoss="1081.09" speed="3.11" speedRelative="0.37" departed="0" arrived="0" entered="78" left="78" laneChangedFrom="0" laneChangedTo="0"/>
    </interval>
    <interval begin="3600.00" end="7200.00" id="wizard_example">
        <edge id="1053072563" sampledSeconds="1560.76" traveltime="14.09" overlapTraveltime="14.62" density="4.02" laneDensity="4.02" occupancy="1.63" waitingTime="0.00" timeLoss="106.09" speed="7.67" speedRelative="0.92" departed="0" arrived="108" entered="108" left="0" laneChangedFrom="0" laneChangedTo="0"/>
        <edge id="1053199270" sampledSeconds="0.00" departed="0" arrived="0" entered="0" left="0" laneChangedFrom="0" laneChangedTo="0"/>
        <edge id="1081353722#1" sampledSeconds="0.00" departed="0" arrived="0" entered="0" left="0" laneChangedFrom="0" laneChangedTo="0"/>
        <edge id="1081353722#2" sampledSeconds="0.00" departed="0" arrived="0" entered="0" left="0" laneChangedFrom="0" laneChangedTo="0"/>
        <edge id="1081353722#3" sampledSeconds="0.00" departed="0" arrived="0" entered="0" left="0" laneChangedFrom="0" laneChangedTo="0"/>
        <edge id="1081353722#4" sampledSeconds="0.00" departed="0" arrived="0" entered="0" left="0" laneChangedFrom="0" laneChangedTo="0"/>
        <edge id="1081353722#5" sampledSeconds="0.00" departed="0" arrived="0" entered="0" left="0" laneChangedFrom="0" laneChangedTo="0"/>
        <edge id="1081353722#6" sampledSeconds="0.00" departed="0" arrived="0" entered="0" left="0" laneChangedFrom="0" laneChangedTo="0"/>
        <edge id="1081353722#7" sampledSeconds="0.00" departed="0" arrived="0" entered="0" left="0" laneChangedFrom="0" laneChangedTo="0"/>
        <edge id="1081353722#8" sampledSeconds="0.00" departed="0" arrived="0" entered="0" left="0" laneChangedFrom="0" laneChangedTo="0"/>
        <edge id="1175780997" sampledSeconds="0.00" departed="0" arrived="0" entered="0" left="0" laneChangedFrom="0" laneChangedTo="0"/>
        <edge id="1296513962#0" sampledSeconds="0.00" departed="0" arrived="0" entered="0" left="0" laneChangedFrom="0" laneChangedTo="0"/>
        <edge id="1296513962#1" sampledSeconds="0.00" departed="0" arrived="0" entered="0" left="0" laneChangedFrom="0" laneChangedTo="0"/>
        <edge id="1296513963" sampledSeconds="0.00" departed="0" arrived="0" entered="0" left="0" laneChangedFrom="0" laneChangedTo="0"/>
        <edge id="1296513964" sampledSeconds="0.00" departed="0" arrived="0" entered="0" left="0" laneChangedFrom="0" laneChangedTo="0"/>
        <edge id="1296513965" sampledSeconds="0.00" departed="0" arrived="0" entered="0" left="0" laneChangedFrom="0" laneChangedTo="0"/>
        <edge id="1296513967" sampledSeconds="0.00" departed="0" arrived="0" entered="0" left="0" laneChangedFrom="0" laneChangedTo="0"/>
        <edge id="1296513968" sampledSeconds="0.00" departed="0" arrived="0" entered="0" left="0" laneChangedFrom="0" laneChangedTo="0"/>
        <edge id="1296513969" sampledSeconds="0.00" departed="0" arrived="0" entered="0" left="0" laneChangedFrom="0" laneChangedTo="0"/>
        <edge id="1296513970" sampledSeconds="0.00" departed="0" arrived="0" entered="0" left="0" laneChangedFrom="0" laneChangedTo="0"/>
        <edge id="1296513971" sampledSeconds="0.00" departed="0" arrived="0" entered="0" left="0" laneChangedFrom="0" laneChangedTo="0"/>
        <edge id="304456533" sampledSeconds="0.00" departed="0" arrived="0" entered="0" left="0" laneChangedFrom="0" laneChangedTo="0"/>
        <edge id="337277951#1" sampledSeconds="2135.33" traveltime="4.87" overlapTraveltime="5.40" density="16.35" laneDensity="8.17" occupancy="3.06" waitingTime="0.00" timeLoss="193.15" speed="7.49" speedRelative="0.90" departed="0" arrived="36" entered="396" left="360" laneChangedFrom="72" laneChangedTo="72"/>
        <edge id="337277951#2" sampledSeconds="235.63" traveltime="0.12" overlapTraveltime="0.65" density="71.93" laneDensity="35.96" occupancy="2.69" waitingTime="0.00" timeLoss="12.24" speed="7.81" speedRelative="0.94" departed="0" arrived="0" entered="360" left="360" laneChangedFrom="0" laneChangedTo="0"/>
        <edge id="337277951#3" sampledSeconds="3186.19" traveltime="7.92" overlapTraveltime="8.87" density="22.81" laneDensity="11.41" occupancy="4.39" waitingTime="596.00" timeLoss="1306.93" speed="4.85" speedRelative="0.58" departed="0" arrived="36" entered="360" left="324" laneChangedFrom="0" laneChangedTo="0"/>
        <edge id="337277951#4" sampledSeconds="1887.92" traveltime="4.75" overlapTraveltime="5.83" density="85.27" laneDensity="42.64" occupancy="14.86" waitingTime="916.00" timeLoss="1434.79" speed="1.78" speedRelative="0.21" departed="0" arrived="0" entered="324" left="324" laneChangedFrom="0" laneChangedTo="0"/>
        <edge id="337277957#0" sampledSeconds="1503.09" traveltime="13.67" overlapTraveltime="14.21" density="3.95" laneDensity="1.98" occupancy="0.80" waitingTime="0.00" timeLoss="81.98" speed="7.73" speedRelative="0.93" departed="0" arrived="107" entered="108" left="0" laneChangedFrom="18" laneChangedTo="18"/>
        <edge id="337277970#1" sampledSeconds="6859.34" traveltime="18.09" overlapTraveltime="19.09" density="24.07" laneDensity="12.03" occupancy="4.85" waitingTime="1712.00" timeLoss="3200.30" speed="4.37" speedRelative="0.52" departed="0" arrived="36" entered="360" left="324" laneChangedFrom="49" laneChangedTo="49"/>
        <edge id="337277973#0" sampledSeconds="422.54" traveltime="0.66" overlapTraveltime="1.30" density="30.10" laneDensity="15.05" occupancy="3.03" waitingTime="0.00" timeLoss="103.62" speed="6.21" speedRelative="0.75" departed="0" arrived="0" entered="324" left="324" laneChangedFrom="0" laneChangedTo="0"/>
        <edge id="337277973#1" sampledSeconds="5475.81" traveltime="16.02" overlapTraveltime="16.99" density="19.78" laneDensity="9.89" occupancy="3.98" waitingTime="1226.00" timeLoss="2308.43" speed="4.77" speedRelative="0.57" departed="0" arrived="108" entered="324" left="215" laneChangedFrom="67" laneChangedTo="67"/>
        <edge id="337277981#1" sampledSeconds="1643.73" traveltime="5.99" overlapTraveltime="6.52" density="9.95" laneDensity="4.97" occupancy="1.91" waitingTime="0.00" timeLoss="102.05" speed="7.68" speedRelative="0.92" departed="0" arrived="0" entered="252" left="252" laneChangedFrom="72" laneChangedTo="72"/>
        <edge id="337277981#2" sampledSeconds="3689.21" traveltime="13.49" overlapTraveltime="14.64" density="26.25" laneDensity="13.12" occupancy="5.21" waitingTime="1585.00" timeLoss="2353.12" speed="2.95" speedRelative="0.35" departed="0" arrived="0" entered="252" left="252" laneChangedFrom="0" laneChangedTo="0"/>
        <edge id="337277984#0" sampledSeconds="1204.63" traveltime="10.95" overlapTraveltime="11.34" density="3.07" laneDensity="1.54" occupancy="0.62" waitingTime="0.00" timeLoss="109.84" speed="9.97" speedRelative="0.90" departed="0" arrived="108" entered="107" left="0" laneChangedFrom="6" laneChangedTo="6"/>
        <edge id="402944900" sampledSeconds="0.00" departed="0" arrived="0" entered="0" left="0" laneChangedFrom="0" laneChangedTo="0"/>
        <edge id="40668087#1" sampledSeconds="7403.38" traveltime="29.72" overlapTraveltime="30.57" density="19.44" laneDensity="19.44" occupancy="8.05" waitingTime="1890.00" timeLoss="4158.97" speed="3.60" speedRelative="0.43" departed="252" arrived="0" entered="0" left="252" laneChangedFrom="0" laneChangedTo="0"/>
        <edge id="42143912#3" sampledSeconds="0.00" departed="0" arrived="0" entered="0" left="0" laneChangedFrom="0" laneChangedTo="0"/>
        <edge id="42143912#4" sampledSeconds="0.00" departed="0" arrived="0" entered="0" left="0" laneChangedFrom="0" laneChangedTo="0"/>
        <edge id="42143912#5" sampledSeconds="2839.48" traveltime="20.74" overlapTraveltime="21.61" density="17.53" laneDensity="17.53" occupancy="7.19" waitingTime="943.00" timeLoss="2055.11" speed="2.28" speedRelative="0.27" departed="144" arrived="0" entered="0" left="144" laneChangedFrom="0" laneChangedTo="0"/>
        <edge id="48903210#0" sampledSeconds="0.00" departed="0" arrived="0" entered="0" left="0" laneChangedFrom="0" laneChangedTo="0"/>
        <edge id="48903210#1" sampledSeconds="0.00" departed="0" arrived="0" entered="0" left="0" laneChangedFrom="0" laneChangedTo="0"/>
        <edge id="49217102" sampledSeconds="5235.93" traveltime="29.39" overlapTraveltime="30.28" density="13.80" laneDensity="13.80" occupancy="5.71" waitingTime="1385.00" timeLoss="2928.01" speed="3.62" speedRelative="0.43" departed="180" arrived="0" entered="0" left="180" laneChangedFrom="0" laneChangedTo="0"/>
        <edge id="542428845#0" sampledSeconds="2016.07" traveltime="13.73" overlapTraveltime="14.27" density="5.39" laneDensity="5.39" occupancy="2.18" waitingTime="0.00" timeLoss="129.00" speed="7.58" speedRelative="0.91" departed="0" arrived="142" entered="143" left="0" laneChangedFrom="0" laneChangedTo="0"/>
        <edge id="567060312" sampledSeconds="0.00" departed="0" arrived="0" entered="0" left="0" laneChangedFrom="0" laneChangedTo="0"/>
        <edge id="567060313" sampledSeconds="0.00" departed="0" arrived="0" entered="0" left="0" laneChangedFrom="0" laneChangedTo="0"/>
        <edge id="567060325" sampledSeconds="0.00" departed="0" arrived="0" entered="0" left="0" laneChangedFrom="0" laneChangedTo="0"/>
        <edge id="567060342#0" sampledSeconds="901.29" traveltime="8.88" overlapTraveltime="9.38" density="7.23" laneDensity="7.23" occupancy="2.93" waitingTime="1.00" timeLoss="445.18" speed="4.14" speedRelative="0.50" departed="108" arrived="0" entered="0" left="108" laneChangedFrom="0" laneChangedTo="0"/>
        <edge id="567060342#1" sampledSeconds="2165.25" traveltime="19.05" overlapTraveltime="20.05" density="9.18" laneDensity="9.18" occupancy="3.71" waitingTime="860.00" timeLoss="1244.04" speed="3.48" speedRelative="0.42" departed="0" arrived="0" entered="108" left="108" laneChangedFrom="0" laneChangedTo="0"/>
    </interval>
    <interval begin="7200.00" end="10800.00" id="wizard_example">
        <edge id="1053072563" sampledSeconds="2013.06" traveltime="14.07" overlapTraveltime="14.60" density="5.18" laneDensity="5.18" occupancy="2.10" waitingTime="0.00" timeLoss="133.49" speed="7.68" speedRelative="0.92" departed="0" arrived="139" entered="140" left="0" laneChangedFrom="0" laneChangedTo="0"/>
        <edge id="1053199270" sampledSeconds="0.00" departed="0" arrived="0" entered="0" left="0" laneChangedFrom="0" laneChangedTo="0"/>
        <edge id="1081353722#1" sampledSeconds="0.00" departed="0" arrived="0" entered="0" left="0" laneChangedFrom="0" laneChangedTo="0"/>
        <edge id="1081353722#2" sampledSeconds="0.00" departed="0" arrived="0" entered="0" left="0" laneChangedFrom="0" laneChangedTo="0"/>
        <edge id="1081353722#3" sampledSeconds="0.00" departed="0" arrived="0" entered="0" left="0" laneChangedFrom="0" laneChangedTo="0"/>
        <edge id="1081353722#4" sampledSeconds="0.00" departed="0" arrived="0" entered="0" left="0" laneChangedFrom="0" laneChangedTo="0"/>
        <edge id="1081353722#5" sampledSeconds="0.00" departed="0" arrived="0" entered="0" left="0" laneChangedFrom="0" laneChangedTo="0"/>
        <edge id="1081353722#6" sampledSeconds="0.00" departed="0" arrived="0" entered="0" left="0" laneChangedFrom="0" laneChangedTo="0"/>
        <edge id="1081353722#7" sampledSeconds="0.00" departed="0" arrived="0" entered="0" left="0" laneChangedFrom="0" laneChangedTo="0"/>
        <edge id="1081353722#8" sampledSeconds="0.00" departed="0" arrived="0" entered="0" left="0" laneChangedFrom="0" laneChangedTo="0"/>
        <edge id="1175780997" sampledSeconds="0.00" departed="0" arrived="0" entered="0" left="0" laneChangedFrom="0" laneChangedTo="0"/>
        <edge id="1296513962#0" sampledSeconds="0.00" departed="0" arrived="0" entered="0" left="0" laneChangedFrom="0" laneChangedTo="0"/>
        <edge id="1296513962#1" sampledSeconds="0.00" departed="0" arrived="0" entered="0" left="0" laneChangedFrom="0" laneChangedTo="0"/>
        <edge id="1296513963" sampledSeconds="0.00" departed="0" arrived="0" entered="0" left="0" laneChangedFrom="0" laneChangedTo="0"/>
        <edge id="1296513964" sampledSeconds="0.00" departed="0" arrived="0" entered="0" left="0" laneChangedFrom="0" laneChangedTo="0"/>
        <edge id="1296513965" sampledSeconds="0.00" departed="0" arrived="0" entered="0" left="0" laneChangedFrom="0" laneChangedTo="0"/>
        <edge id="1296513967" sampledSeconds="0.00" departed="0" arrived="0" entered="0" left="0" laneChangedFrom="0" laneChangedTo="0"/>
        <edge id="1296513968" sampledSeconds="0.00" departed="0" arrived="0" entered="0" left="0" laneChangedFrom="0" laneChangedTo="0"/>
        <edge id="1296513969" sampledSeconds="0.00" departed="0" arrived="0" entered="0" left="0" laneChangedFrom="0" laneChangedTo="0"/>
        <edge id="1296513970" sampledSeconds="0.00" departed="0" arrived="0" entered="0" left="0" laneChangedFrom="0" laneChangedTo="0"/>
        <edge id="1296513971" sampledSeconds="0.00" departed="0" arrived="0" entered="0" left="0" laneChangedFrom="0" laneChangedTo="0"/>
        <edge id="304456533" sampledSeconds="0.00" departed="0" arrived="0" entered="0" left="0" laneChangedFrom="0" laneChangedTo="0"/>
        <edge id="337277951#1" sampledSeconds="2755.34" traveltime="4.86" overlapTraveltime="5.40" density="21.10" laneDensity="10.55" occupancy="3.96" waitingTime="0.00" timeLoss="241.82" speed="7.50" speedRelative="0.90" departed="0" arrived="46" entered="512" left="466" laneChangedFrom="93" laneChangedTo="93"/>
        <edge id="337277951#2" sampledSeconds="306.53" traveltime="0.12" overlapTraveltime="0.66" density="93.57" laneDensity="46.78" occupancy="3.50" waitingTime="0.00" timeLoss="16.83" speed="7.77" speedRelative="0.93" departed="0" arrived="0" entered="466" left="466" laneChangedFrom="0" laneChangedTo="0"/>
        <edge id="337277951#3" sampledSeconds="4092.70" traveltime="7.84" overlapTraveltime="8.81" density="29.30" laneDensity="14.65" occupancy="5.63" waitingTime="726.00" timeLoss="1655.76" speed="4.88" speedRelative="0.59" departed="0" arrived="47" entered="466" left="419" laneChangedFrom="0" laneChangedTo="0"/>
        <edge id="337277951#4" sampledSeconds="2543.30" traveltime="4.99" overlapTraveltime="6.07" density="114.87" laneDensity="57.44" occupancy="20.16" waitingTime="1285.00" timeLoss="1953.52" speed="1.71" speedRelative="0.20" departed="0" arrived="0" entered="419" left="419" laneChangedFrom="0" laneChangedTo="0"/>
        <edge id="337277957#0" sampledSeconds="1979.68" traveltime="13.67" overlapTraveltime="14.20" density="5.21" laneDensity="2.60" occupancy="1.06" waitingTime="0.00" timeLoss="108.28" speed="7.73" speedRelative="0.93" departed="0" arrived="141" entered="140" left="0" laneChangedFrom="16" laneChangedTo="16"/>
        <edge id="337277970#1" sampledSeconds="9015.41" traveltime="18.34" overlapTraveltime="19.33" density="31.64" laneDensity="15.82" occupancy="6.39" waitingTime="2349.00" timeLoss="4231.74" speed="4.31" speedRelative="0.52" departed="0" arrived="47" entered="468" left="417" laneChangedFrom="66" laneChangedTo="66"/>
        <edge id="337277973#0" sampledSeconds="551.68" traveltime="0.66" overlapTraveltime="1.31" density="39.29" laneDensity="19.65" occupancy="3.96" waitingTime="0.00" timeLoss="137.64" speed="6.17" speedRelative="0.74" departed="0" arrived="0" entered="420" left="420" laneChangedFrom="0" laneChangedTo="0"/>
        <edge id="337277973#1" sampledSeconds="7172.78" traveltime="16.22" overlapTraveltime="17.21" density="25.91" laneDensity="12.96" occupancy="5.21" waitingTime="1590.00" timeLoss="3069.13" speed="4.71" speedRelative="0.57" departed="0" arrived="139" entered="420" left="280" laneChangedFrom="85" laneChangedTo="85"/>
        <edge id="337277981#1" sampledSeconds="2124.92" traveltime="5.95" overlapTraveltime="6.48" density="12.86" laneDensity="6.43" occupancy="2.46" waitingTime="0.00" timeLoss="134.74" speed="7.73" speedRelative="0.93" departed="0" arrived="0" entered="328" left="328" laneChangedFrom="93" laneChangedTo="93"/>
        <edge id="337277981#2" sampledSeconds="4920.25" traveltime="13.90" overlapTraveltime="15.01" density="35.01" laneDensity="17.50" occupancy="6.97" waitingTime="2179.00" timeLoss="3196.14" speed="2.88" speedRelative="0.35" departed="0" arrived="0" entered="328" left="327" laneChangedFrom="0" laneChangedTo="0"/>
        <edge id="337277984#0" sampledSeconds="1592.79" traveltime="11.07" overlapTraveltime="11.47" density="4.06" laneDensity="2.03" occupancy="0.82" waitingTime="0.00" timeLoss="148.24" speed="9.85" speedRelative="0.89" departed="0" arrived="140" entered="140" left="0" laneChangedFrom="7" laneChangedTo="7"/>
        <edge id="402944900" sampledSeconds="0.00" departed="0" arrived="0" entered="0" left="0" laneChangedFrom="0" laneChangedTo="0"/>
        <edge id="40668087#1" sampledSeconds="9604.71" traveltime="29.53" overlapTraveltime="30.38" density="25.23" laneDensity="25.23" occupancy="10.45" waitingTime="2463.00" timeLoss="5372.10" speed="3.62" speedRelative="0.43" departed="329" arrived="0" entered="0" left="329" laneChangedFrom="0" laneChangedTo="0"/>
        <edge id="42143912#3" sampledSeconds="0.00" departed="0" arrived="0" entered="0" left="0" laneChangedFrom="0" laneChangedTo="0"/>
        <edge id="42143912#4" sampledSeconds="0.00" departed="0" arrived="0" entered="0" left="0" laneChangedFrom="0" laneChangedTo="0"/>
        <edge id="42143912#5" sampledSeconds="3579.55" traveltime="20.02" overlapTraveltime="20.86" density="22.10" laneDensity="22.10" occupancy="9.07" waitingTime="1173.00" timeLoss="2556.91" speed="2.36" speedRelative="0.28" departed="188" arrived="0" entered="0" left="188" laneChangedFrom="0" laneChangedTo="0"/>
        <edge id="48903210#0" sampledSeconds="0.00" departed="0" arrived="0" entered="0" left="0" laneChangedFrom="0" laneChangedTo="0"/>
        <edge id="48903210#1" sampledSeconds="0.00" departed="0" arrived="0" entered="0" left="0" laneChangedFrom="0" laneChangedTo="0"/>
        <edge id="49217102" sampledSeconds="6556.07" traveltime="28.18" overlapTraveltime="29.04" density="17.28" laneDensity="17.28" occupancy="7.15" waitingTime="1677.00" timeLoss="3566.18" speed="3.77" speedRelative="0.45" departed="235" arrived="0" entered="0" left="235" laneChangedFrom="0" laneChangedTo="0"/>