<?xml version="1.0" encoding="UTF-8"?>

<!-- generated on 2025-07-01 23:20:12 by Eclipse SUMO sumo Version v1_22_0+1225-450f2e124d0
<sumoConfiguration xmlns:xsi="http://www.w3.org/2001/XMLSchema-instance" xsi:noNamespaceSchemaLocation="http://sumo.dlr.de/xsd/sumoConfiguration.xsd">

    <input>
        <net-file value="/home/juanpablo/Desktop/cuenca-flow-optimizer/sumo_files/osm.net_static.xml"/>
        <route-files value="/home/juanpablo/Desktop/cuenca-flow-optimizer/sumo_files/generated_routes_very_high.rou.xml"/>
        <additional-files value="/home/juanpablo/Desktop/cuenca-flow-optimizer/sumo_files/osm.poly.xml.gz,/home/juanpablo/Desktop/cuenca-flow-optimizer/sumo_files/output.add.xml"/>
    </input>

    <output>
        <emission-output value="/home/juanpablo/Desktop/cuenca-flow-optimizer/experiments/gap_actuated_very_high_09/emissions.xml"/>
        <tripinfo-output value="/home/juanpablo/Desktop/cuenca-flow-optimizer/experiments/gap_actuated_very_high_09/tripinfo.xml"/>
        <statistic-output value="/home/juanpablo/Desktop/cuenca-flow-optimizer/experiments/gap_actuated_very_high_09/stats.xml"/>
    </output>

    <time>
        <step-length value="1.0"/>
    </time>

    <processing>
        <ignore-route-errors value="true"/>
        <tls.actuated.jam-threshold value="30"/>
    </processing>

    <routing>
        <device.rerouting.probability value="0"/>
        <device.rerouting.adaptation-steps value="18"/>
        <device.rerouting.adaptation-interval value="10"/>
    </routing>

    <report>
        <verbose value="true"/>
        <duration-log.statistics value="true"/>
        <no-step-log value="true"/>
    </report>

    <traci_server>
        <remote-port value="38119"/>
    </traci_server>

    <random_number>
        <seed value="9"/>
    </random_number>

    <gui_only>
        <gui-settings-file value="/home/juanpablo/Desktop/cuenca-flow-optimizer/sumo_files/osm.view.xml"/>
        <quit-on-end value="true"/>
        <start value="true"/>
    </gui_only>

</sumoConfiguration>
-->

<meandata xmlns:xsi="http://www.w3.org/2001/XMLSchema-instance" xsi:noNamespaceSchemaLocation="http://sumo.dlr.de/xsd/meandata_file.xsd">
    <interval begin="0.00" end="3600.00" id="wizard_example">
        <edge id="1053072563" sampledSeconds="1836.72" traveltime="13.73" overlapTraveltime="14.26" density="4.73" laneDensity="4.73" occupancy="1.92" waitingTime="0.00" timeLoss="100.83" speed="7.87" speedRelative="0.94" departed="0" arrived="129" entered="131" left="0" laneChangedFrom="0" laneChangedTo="0"/>
        <edge id="1053199270" sampledSeconds="0.00" departed="0" arrived="0" entered="0" left="0" laneChangedFrom="0" laneChangedTo="0"/>
        <edge id="1081353722#1" sampledSeconds="0.00" departed="0" arrived="0" entered="0" left="0" laneChangedFrom="0" laneChangedTo="0"/>
        <edge id="1081353722#2" sampledSeconds="0.00" departed="0" arrived="0" entered="0" left="0" laneChangedFrom="0" laneChangedTo="0"/>
        <edge id="1081353722#3" sampledSeconds="0.00" departed="0" arrived="0" entered="0" left="0" laneChangedFrom="0" laneChangedTo="0"/>
        <edge id="1081353722#4" sampledSeconds="0.00" departed="0" arrived="0" entered="0" left="0" laneChangedFrom="0" laneChangedTo="0"/>
        <edge id="1081353722#5" sampledSeconds="0.00" departed="0" arrived="0" entered="0" left="0" laneChangedFrom="0" laneChangedTo="0"/>
        <edge id="1081353722#6" sampledSeconds="0.00" departed="0" arrived="0" entered="0" left="0" laneChangedFrom="0" laneChangedTo="0"/>
        <edge id="1081353722#7" sampledSeconds="0.00" departed="0" arrived="0" entered="0" left="0" laneChangedFrom="0" laneChangedTo="0"/>
        <edge id="1081353722#8" sampledSeconds="0.00" departed="0" arrived="0" entered="0" left="0" laneChangedFrom="0" laneChangedTo="0"/>
        <edge id="1175780997" sampledSeconds="0.00" departed="0" arrived="0" entered="0" left="0" laneChangedFrom="0" laneChangedTo="0"/>
        <edge id="1296513962#0" sampledSeconds="0.00" departed="0" arrived="0" entered="0" left="0" laneChangedFrom="0" laneChangedTo="0"/>
        <edge id="1296513962#1" sampledSeconds="0.00" departed="0" arrived="0" entered="0" left="0" laneChangedFrom="0" laneChangedTo="0"/>
        <edge id="1296513963" sampledSeconds="0.00" departed="0" arrived="0" entered="0" left="0" laneChangedFrom="0" laneChangedTo="0"/>
        <edge id="1296513964" sampledSeconds="0.00" departed="0" arrived="0" entered="0" left="0" laneChangedFrom="0" laneChangedTo="0"/>
        <edge id="1296513965" sampledSeconds="0.00" departed="0" arrived="0" entered="0" left="0" laneChangedFrom="0" laneChangedTo="0"/>
        <edge id="1296513967" sampledSeconds="0.00" departed="0" arrived="0" entered="0" left="0" laneChangedFrom="0" laneChangedTo="0"/>
        <edge id="1296513968" sampledSeconds="0.00" departed="0" arrived="0" entered="0" left="0" laneChangedFrom="0" laneChangedTo="0"/>
        <edge id="1296513969" sampledSeconds="0.00" departed="0" arrived="0" entered="0" left="0" laneChangedFrom="0" laneChangedTo="0"/>
        <edge id="1296513970" sampledSeconds="0.00" departed="0" arrived="0" entered="0" left="0" laneChangedFrom="0" laneChangedTo="0"/>
        <edge id="1296513971" sampledSeconds="0.00" departed="0" arrived="0" entered="0" left="0" laneChangedFrom="0" laneChangedTo="0"/>
        <edge id="304456533" sampledSeconds="0.00" departed="0" arrived="0" entered="0" left="0" laneChangedFrom="0" laneChangedTo="0"/>
        <edge id="337277951#1" sampledSeconds="2602.66" traveltime="4.86" overlapTraveltime="5.40" density="19.93" laneDensity="9.96" occupancy="3.74" waitingTime="0.00" timeLoss="235.38" speed="7.50" speedRelative="0.90" departed="0" arrived="44" entered="484" left="439" laneChangedFrom="88" laneChangedTo="88"/>
        <edge id="337277951#2" sampledSeconds="288.20" traveltime="0.12" overlapTraveltime="0.66" density="87.97" laneDensity="43.99" occupancy="3.29" waitingTime="0.00" timeLoss="16.93" speed="7.78" speedRelative="0.93" departed="0" arrived="0" entered="439" left="439" laneChangedFrom="0" laneChangedTo="0"/>
        <edge id="337277951#3" sampledSeconds="2961.18" traveltime="5.94" overlapTraveltime="6.76" density="21.20" laneDensity="10.60" occupancy="4.00" waitingTime="179.00" timeLoss="678.86" speed="6.36" speedRelative="0.76" departed="0" arrived="44" entered="439" left="394" laneChangedFrom="0" laneChangedTo="0"/>
        <edge id="337277951#4" sampledSeconds="1555.32" traveltime="3.02" overlapTraveltime="3.95" density="70.25" laneDensity="35.12" occupancy="11.53" waitingTime="572.00" timeLoss="1005.81" speed="2.62" speedRelative="0.31" departed="0" arrived="0" entered="394" left="393" laneChangedFrom="0" laneChangedTo="0"/>
        <edge id="337277957#0" sampledSeconds="1808.33" traveltime="13.43" overlapTraveltime="13.96" density="4.76" laneDensity="2.38" occupancy="0.97" waitingTime="0.00" timeLoss="94.32" speed="7.87" speedRelative="0.94" departed="0" arrived="130" entered="131" left="0" laneChangedFrom="25" laneChangedTo="25"/>
        <edge id="337277970#1" sampledSeconds="6629.75" traveltime="14.19" overlapTraveltime="15.09" density="23.26" laneDensity="11.63" occupancy="4.65" waitingTime="872.00" timeLoss="2147.16" speed="5.52" speedRelative="0.66" departed="0" arrived="44" entered="440" left="395" laneChangedFrom="51" laneChangedTo="51"/>
        <edge id="337277973#0" sampledSeconds="496.01" traveltime="0.63" overlapTraveltime="1.26" density="35.33" laneDensity="17.66" occupancy="3.56" waitingTime="0.00" timeLoss="112.53" speed="6.42" speedRelative="0.77" departed="0" arrived="0" entered="393" left="393" laneChangedFrom="0" laneChangedTo="0"/>
        <edge id="337277973#1" sampledSeconds="4982.66" traveltime="12.00" overlapTraveltime="12.76" density="18.00" laneDensity="9.00" occupancy="3.59" waitingTime="433.00" timeLoss="1180.05" speed="6.35" speedRelative="0.76" departed="0" arrived="130" entered="393" left="261" laneChangedFrom="58" laneChangedTo="58"/>
        <edge id="337277981#1" sampledSeconds="1950.63" traveltime="5.83" overlapTraveltime="6.35" density="11.80" laneDensity="5.90" occupancy="2.26" waitingTime="0.00" timeLoss="105.53" speed="7.89" speedRelative="0.95" departed="0" arrived="0" entered="307" left="307" laneChangedFrom="87" laneChangedTo="87"/>
        <edge id="337277981#2" sampledSeconds="4064.80" traveltime="12.17" overlapTraveltime="13.24" density="28.92" laneDensity="14.46" occupancy="5.72" waitingTime="1591.00" timeLoss="2465.61" speed="3.27" speedRelative="0.39" departed="0" arrived="0" entered="307" left="307" laneChangedFrom="0" laneChangedTo="0"/>
        <edge id="337277984#0" sampledSeconds="1422.31" traveltime="10.66" overlapTraveltime="11.05" density="3.63" laneDensity="1.81" occupancy="0.73" waitingTime="0.00" timeLoss="108.25" speed="10.23" speedRelative="0.92" departed="0" arrived="130" entered="130" left="0" laneChangedFrom="9" laneChangedTo="9"/>
        <edge id="402944900" sampledSeconds="0.00" departed="0" arrived="0" entered="0" left="0" laneChangedFrom="0" laneChangedTo="0"/>
        <edge id="40668087#1" sampledSeconds="9337.24" traveltime="30.68" overlapTraveltime="31.55" density="24.52" laneDensity="24.52" occupancy="10.16" waitingTime="2614.00" timeLoss="5370.26" speed="3.49" speedRelative="0.42" departed="308" arrived="0" entered="0" left="308" laneChangedFrom="0" laneChangedTo="0"/>
        <edge id="42143912#3" sampledSeconds="0.00" departed="0" arrived="0" entered="0" left="0" laneChangedFrom="0" laneChangedTo="0"/>
        <edge id="42143912#4" sampledSeconds="0.00" departed="0" arrived="0" entered="0" left="0" laneChangedFrom="0" laneChangedTo="0"/>
        <edge id="42143912#5" sampledSeconds="2640.35" traveltime="15.64" overlapTraveltime="16.44" density="16.30" laneDensity="16.30" occupancy="6.66" waitingTime="589.00" timeLoss="1682.57" speed="2.99" speedRelative="0.36" departed="176" arrived="0" entered="0" left="176" laneChangedFrom="0" laneChangedTo="0"/>
        <edge id="48903210#0" sampledSeconds="0.00" departed="0" arrived="0" entered="0" left="0" laneChangedFrom="0" laneChangedTo="0"/>
        <edge id="48903210#1" sampledSeconds="0.00" departed="0" arrived="0" entered="0" left="0" laneChangedFrom="0" laneChangedTo="0"/>
        <edge id="49217102" sampledSeconds="6893.76" traveltime="31.69" overlapTraveltime="32.61" density="18.17" laneDensity="18.17" occupancy="7.52" waitingTime="2205.00" timeLoss="4099.05" speed="3.36" speedRelative="0.40" departed="220" arrived="0" entered="0" left="220" laneChangedFrom="0" laneChangedTo="0"/>
        <edge id="542428845#0" sampledSeconds="2382.68" traveltime="13.25" overlapTraveltime="13.77" density="6.37" laneDensity="6.37" occupancy="2.58" waitingTime="0.00" timeLoss="148.61" speed="7.85" speedRelative="0.94" departed="0" arrived="175" entered="175" left="0" laneChangedFrom="0" laneChangedTo="0"/>
        <edge id="567060312" sampledSeconds="0.00" departed="0" arrived="0" entered="0" left="0" laneChangedFrom="0" laneChangedTo="0"/>
        <edge id="567060313" sampledSeconds="0.00" departed="0" arrived="0" entered="0" left="0" laneChangedFrom="0" laneChangedTo="0"/>
        <edge id="567060325" sampledSeconds="0.00" departed="0" arrived="0" entered="0" left="0" laneChangedFrom="0" laneChangedTo="0"/>
        <edge id="567060342#0" sampledSeconds="1097.07" traveltime="8.85" overlapTraveltime="9.35" density="8.80" laneDensity="8.80" occupancy="3.57" waitingTime="0.00" timeLoss="554.69" speed="4.15" speedRelative="0.50" departed="132" arrived="0" entered="0" left="132" laneChangedFrom="0" laneChangedTo="0"/>
        <edge id="567060342#1" sampledSeconds="2264.45" traveltime="16.22" overlapTraveltime="17.15" density="9.60" laneDensity="9.60" occupancy="3.86" waitingTime="775.00" timeLoss="1169.02" speed="4.07" speedRelative="0.49" departed="0" arrived="0" entered="132" left="132" laneChangedFrom="0" laneChangedTo="0"/>
    </interval>
    <interval begin="3600.00" end="7200.00" id="wizard_example">
        <edge id="1053072563" sampledSeconds="2713.25" traveltime="14.00" overlapTraveltime="14.54" density="6.98" laneDensity="6.98" occupancy="2.83" waitingTime="0.00" timeLoss="162.44" speed="7.71" speedRelative="0.93" departed="0" arrived="189" entered="188" left="0" laneChangedFrom="0" laneChangedTo="0"/>
        <edge id="1053199270" sampledSeconds="0.00" departed="0" arrived="0" entered="0" left="0" laneChangedFrom="0" laneChangedTo="0"/>
        <edge id="1081353722#1" sampledSeconds="0.00" departed="0" arrived="0" entered="0" left="0" laneChangedFrom="0" laneChangedTo="0"/>
        <edge id="1081353722#2" sampledSeconds="0.00" departed="0" arrived="0" entered="0" left="0" laneChangedFrom="0" laneChangedTo="0"/>
        <edge id="1081353722#3" sampledSeconds="0.00" departed="0" arrived="0" entered="0" left="0" laneChangedFrom="0" laneChangedTo="0"/>
        <edge id="1081353722#4" sampledSeconds="0.00" departed="0" arrived="0" entered="0" left="0" laneChangedFrom="0" laneChangedTo="0"/>
        <edge id="1081353722#5" sampledSeconds="0.00" departed="0" arrived="0" entered="0" left="0" laneChangedFrom="0" laneChangedTo="0"/>
        <edge id="1081353722#6" sampledSeconds="0.00" departed="0" arrived="0" entered="0" left="0" laneChangedFrom="0" laneChangedTo="0"/>
        <edge id="1081353722#7" sampledSeconds="0.00" departed="0" arrived="0" entered="0" left="0" laneChangedFrom="0" laneChangedTo="0"/>
        <edge id="1081353722#8" sampledSeconds="0.00" departed="0" arrived="0" entered="0" left="0" laneChangedFrom="0" laneChangedTo="0"/>
        <edge id="1175780997" sampledSeconds="0.00" departed="0" arrived="0" entered="0" left="0" laneChangedFrom="0" laneChangedTo="0"/>
        <edge id="1296513962#0" sampledSeconds="0.00" departed="0" arrived="0" entered="0" left="0" laneChangedFrom="0" laneChangedTo="0"/>
        <edge id="1296513962#1" sampledSeconds="0.00" departed="0" arrived="0" entered="0" left="0" laneChangedFrom="0" laneChangedTo="0"/>
        <edge id="1296513963" sampledSeconds="0.00" departed="0" arrived="0" entered="0" left="0" laneChangedFrom="0" laneChangedTo="0"/>
        <edge id="1296513964" sampledSeconds="0.00" departed="0" arrived="0" entered="0" left="0" laneChangedFrom="0" laneChangedTo="0"/>
        <edge id="1296513965" sampledSeconds="0.00" departed="0" arrived="0" entered="0" left="0" laneChangedFrom="0" laneChangedTo="0"/>
        <edge id="1296513967" sampledSeconds="0.00" departed="0" arrived="0" entered="0" left="0" laneChangedFrom="0" laneChangedTo="0"/>
        <edge id="1296513968" sampledSeconds="0.00" departed="0" arrived="0" entered="0" left="0" laneChangedFrom="0" laneChangedTo="0"/>
        <edge id="1296513969" sampledSeconds="0.00" departed="0" arrived="0" entered="0" left="0" laneChangedFrom="0" laneChangedTo="0"/>
        <edge id="1296513970" sampledSeconds="0.00" departed="0" arrived="0" entered="0" left="0" laneChangedFrom="0" laneChangedTo="0"/>
        <edge id="1296513971" sampledSeconds="0.00" departed="0" arrived="0" entered="0" left="0" laneChangedFrom="0" laneChangedTo="0"/>
        <edge id="304456533" sampledSeconds="0.00" departed="0" arrived="0" entered="0" left="0" laneChangedFrom="0" laneChangedTo="0"/>
        <edge id="337277951#1" sampledSeconds="3699.13" traveltime="4.86" overlapTraveltime="5.40" density="28.32" laneDensity="14.16" occupancy="5.31" waitingTime="0.00" timeLoss="327.15" speed="7.50" speedRelative="0.90" departed="0" arrived="62" entered="688" left="625" laneChangedFrom="125" laneChangedTo="125"/>
        <edge id="337277951#2" sampledSeconds="410.59" traveltime="0.12" overlapTraveltime="0.66" density="125.33" laneDensity="62.67" occupancy="4.69" waitingTime="0.00" timeLoss="22.30" speed="7.78" speedRelative="0.93" departed="0" arrived="0" entered="625" left="625" laneChangedFrom="0" laneChangedTo="0"/>
        <edge id="337277951#3" sampledSeconds="5351.59" traveltime="7.69" overlapTraveltime="8.60" density="38.31" laneDensity="19.16" occupancy="7.38" waitingTime="865.00" timeLoss="2088.31" speed="5.00" speedRelative="0.60" departed="0" arrived="63" entered="625" left="561" laneChangedFrom="0" laneChangedTo="0"/>
        <edge id="337277951#4" sampledSeconds="2671.21" traveltime="3.78" overlapTraveltime="4.76" density="120.65" laneDensity="60.33" occupancy="20.40" waitingTime="1164.00" timeLoss="1879.81" speed="2.18" speedRelative="0.26" departed="0" arrived="0" entered="561" left="562" laneChangedFrom="0" laneChangedTo="0"/>
        <edge id="337277957#0" sampledSeconds="2623.38" traveltime="13.57" overlapTraveltime="14.09" density="6.90" laneDensity="3.45" occupancy="1.40" waitingTime="0.00" timeLoss="154.03" speed="7.79" speedRelative="0.94" departed="0" arrived="189" entered="188" left="0" laneChangedFrom="22" laneChangedTo="22"/>
        <edge id="337277970#1" sampledSeconds="11708.16" traveltime="17.78" overlapTraveltime="18.74" density="41.08" laneDensity="20.54" occupancy="8.29" waitingTime="2832.00" timeLoss="5326.81" speed="4.45" speedRelative="0.53" departed="0" arrived="62" entered="626" left="561" laneChangedFrom="88" laneChangedTo="88"/>
        <edge id="337277973#0" sampledSeconds="738.29" traveltime="0.66" overlapTraveltime="1.31" density="52.58" laneDensity="26.29" occupancy="5.30" waitingTime="0.00" timeLoss="181.57" speed="6.19" speedRelative="0.74" departed="0" arrived="0" entered="564" left="564" laneChangedFrom="0" laneChangedTo="0"/>
        <edge id="337277973#1" sampledSeconds="7913.58" traveltime="13.25" overlapTraveltime="14.10" density="28.59" laneDensity="14.29" occupancy="5.71" waitingTime="836.00" timeLoss="2384.33" speed="5.75" speedRelative="0.69" departed="0" arrived="187" entered="564" left="378" laneChangedFrom="96" laneChangedTo="96"/>
        <edge id="337277981#1" sampledSeconds="2857.61" traveltime="5.96" overlapTraveltime="6.49" density="17.29" laneDensity="8.64" occupancy="3.31" waitingTime="0.00" timeLoss="179.24" speed="7.72" speedRelative="0.93" departed="0" arrived="0" entered="440" left="440" laneChangedFrom="125" laneChangedTo="125"/>
        <edge id="337277981#2" sampledSeconds="6363.48" traveltime="13.38" overlapTraveltime="14.47" density="45.28" laneDensity="22.64" occupancy="9.00" waitingTime="2535.00" timeLoss="4043.37" speed="2.99" speedRelative="0.36" departed="0" arrived="0" entered="440" left="438" laneChangedFrom="0" laneChangedTo="0"/>
        <edge id="337277984#0" sampledSeconds="2106.71" traveltime="10.89" overlapTraveltime="11.29" density="5.38" laneDensity="2.69" occupancy="1.09" waitingTime="0.00" timeLoss="161.07" speed="10.01" speedRelative="0.90" departed="0" arrived="188" entered="188" left="0" laneChangedFrom="14" laneChangedTo="14"/>
        <edge id="402944900" sampledSeconds="0.00" departed="0" arrived="0" entered="0" left="0" laneChangedFrom="0" laneChangedTo="0"/>
        <edge id="40668087#1" sampledSeconds="12545.12" traveltime="28.77" overlapTraveltime="29.62" density="32.95" laneDensity="32.95" occupancy="13.64" waitingTime="2925.00" timeLoss="6847.98" speed="3.71" speedRelative="0.45" departed="441" arrived="0" entered="0" left="439" laneChangedFrom="0" laneChangedTo="0"/>
        <edge id="42143912#3" sampledSeconds="0.00" departed="0" arrived="0" entered="0" left="0" laneChangedFrom="0" laneChangedTo="0"/>
        <edge id="42143912#4" sampledSeconds="0.00" departed="0" arrived="0" entered="0" left="0" laneChangedFrom="0" laneChangedTo="0"/>
        <edge id="42143912#5" sampledSeconds="4555.86" traveltime="18.87" overlapTraveltime="19.81" density="28.13" laneDensity="28.13" occupancy="11.50" waitingTime="1243.00" timeLoss="3182.72" speed="2.48" speedRelative="0.30" departed="252" arrived="0" entered="0" left="252" laneChangedFrom="0" laneChangedTo="0"/>
        <edge id="48903210#0" sampledSeconds="0.00" departed="0" arrived="0" entered="0" left="0" laneChangedFrom="0" laneChangedTo="0"/>
        <edge id="48903210#1" sampledSeconds="0.00" departed="0" arrived="0" entered="0" left="0" laneChangedFrom="0" laneChangedTo="0"/>
        <edge id="49217102" sampledSeconds="10530.08" traveltime="33.86" overlapTraveltime="34.79" density="27.75" laneDensity="27.75" occupancy="11.50" waitingTime="3637.00" timeLoss="6514.72" speed="3.15" speedRelative="0.38" departed="315" arrived="0" entered="0" left="315" laneChangedFrom="0" laneChangedTo="0"/>
        <edge id="542428845#0" sampledSeconds="3547.27" traveltime="13.80" overlapTraveltime="14.34" density="9.48" laneDensity="9.48" occupancy="3.84" waitingTime="0.00" timeLoss="269.02" speed="7.54" speedRelative="0.91" departed="0" arrived="250" entered="250" left="0" laneChangedFrom="0" laneChangedTo="0"/>
        <edge id="567060312" sampledSeconds="0.00" departed="0" arrived="0" entered="0" left="0" laneChangedFrom="0" laneChangedTo="0"/>
        <edge id="567060313" sampledSeconds="0.00" departed="0" arrived="0" entered="0" left="0" laneChangedFrom="0" laneChangedTo="0"/>
        <edge id="567060325" sampledSeconds="0.00" departed="0" arrived="0" entered="0" left="0" laneChangedFrom="0" laneChangedTo="0"/>
        <edge id="567060342#0" sampledSeconds="1571.15" traveltime="8.84" overlapTraveltime="9.35" density="12.60" laneDensity="12.60" occupancy="5.11" waitingTime="0.00" timeLoss="777.18" speed="4.15" speedRelative="0.50" departed="189" arrived="0" entered="0" left="189" laneChangedFrom="0" laneChangedTo="0"/>
        <edge id="567060342#1" sampledSeconds="3959.71" traveltime="19.88" overlapTraveltime="20.95" density="16.78" laneDensity="16.78" occupancy="6.79" waitingTime="1567.00" timeLoss="2356.12" speed="3.33" speedRelative="0.40" departed="0" arrived="0" entered="189" left="189" laneChangedFrom="0" laneChangedTo="0"/>
    </interval>
    <interval begin="7200.00" end="10800.00" id="wizard_example">
        <edge id="1053072563" sampledSeconds="3456.12" traveltime="14.11" overlapTraveltime="14.64" density="8.89" laneDensity="8.89" occupancy="3.61" waitingTime="0.00" timeLoss="248.27" speed="7.66" speedRelative="0.92" departed="0" arrived="238" entered="239" left="0" laneChangedFrom="0" laneChangedTo="0"/>
        <edge id="1053199270" sampledSeconds="0.00" departed="0" arrived="0" entered="0" left="0" laneChangedFrom="0" laneChangedTo="0"/>
        <edge id="1081353722#1" sampledSeconds="0.00" departed="0" arrived="0" entered="0" left="0" laneChangedFrom="0" laneChangedTo="0"/>
        <edge id="1081353722#2" sampledSeconds="0.00" departed="0" arrived="0" entered="0" left="0" laneChangedFrom="0" laneChangedTo="0"/>
        <edge id="1081353722#3" sampledSeconds="0.00" departed="0" arrived="0" entered="0" left="0" laneChangedFrom="0" laneChangedTo="0"/>
        <edge id="1081353722#4" sampledSeconds="0.00" departed="0" arrived="0" entered="0" left="0" laneChangedFrom="0" laneChangedTo="0"/>
        <edge id="1081353722#5" sampledSeconds="0.00" departed="0" arrived="0" entered="0" left="0" laneChangedFrom="0" laneChangedTo="0"/>
        <edge id="1081353722#6" sampledSeconds="0.00" departed="0" arrived="0" entered="0" left="0" laneChangedFrom="0" laneChangedTo="0"/>
        <edge id="1081353722#7" sampledSeconds="0.00" departed="0" arrived="0" entered="0" left="0" laneChangedFrom="0" laneChangedTo="0"/>
        <edge id="1081353722#8" sampledSeconds="0.00" departed="0" arrived="0" entered="0" left="0" laneChangedFrom="0" laneChangedTo="0"/>
        <edge id="1175780997" sampledSeconds="0.00" departed="0" arrived="0" entered="0" left="0" laneChangedFrom="0" laneChangedTo="0"/>
        <edge id="1296513962#0" sampledSeconds="0.00" departed="0" arrived="0" entered="0" left="0" laneChangedFrom="0" laneChangedTo="0"/>
        <edge id="1296513962#1" sampledSeconds="0.00" departed="0" arrived="0" entered="0" left="0" laneChangedFrom="0" laneChangedTo="0"/>
        <edge id="1296513963" sampledSeconds="0.00" departed="0" arrived="0" entered="0" left="0" laneChangedFrom="0" laneChangedTo="0"/>
        <edge id="1296513964" sampledSeconds="0.00" departed="0" arrived="0" entered="0" left="0" laneChangedFrom="0" laneChangedTo="0"/>
        <edge id="1296513965" sampledSeconds="0.00" departed="0" arrived="0" entered="0" left="0" laneChangedFrom="0" laneChangedTo="0"/>
        <edge id="1296513967" sampledSeconds="0.00" departed="0" arrived="0" entered="0" left="0" laneChangedFrom="0" laneChangedTo="0"/>
        <edge id="1296513968" sampledSeconds="0.00" departed="0" arrived="0" entered="0" left="0" laneChangedFrom="0" laneChangedTo="0"/>
        <edge id="1296513969" sampledSeconds="0.00" departed="0" arrived="0" entered="0" left="0" laneChangedFrom="0" laneChangedTo="0"/>
        <edge id="1296513970" sampledSeconds="0.00" departed="0" arrived="0" entered="0" left="0" laneChangedFrom="0" laneChangedTo="0"/>
        <edge id="1296513971" sampledSeconds="0.00" departed="0" arrived="0" entered="0" left="0" laneChangedFrom="0" laneChangedTo="0"/>
        <edge id="304456533" sampledSeconds="0.00" departed="0" arrived="0" entered="0" left="0" laneChangedFrom="0" laneChangedTo="0"/>
        <edge id="337277951#1" sampledSeconds="4698.73" traveltime="4.84" overlapTraveltime="5.38" density="35.98" laneDensity="17.99" occupancy="6.75" waitingTime="0.00" timeLoss="399.01" speed="7.53" speedRelative="0.90" departed="0" arrived="79" entered="877" left="798" laneChangedFrom="159" laneChangedTo="159"/>
        <edge id="337277951#2" sampledSeconds="525.83" traveltime="0.12" overlapTraveltime="0.66" density="160.51" laneDensity="80.25" occupancy="6.00" waitingTime="0.00" timeLoss="30.48" speed="7.75" speedRelative="0.93" departed="0" arrived="0" entered="797" left="797" laneChangedFrom="0" laneChangedTo="0"/>
        <edge id="337277951#3" sampledSeconds="7917.09" traveltime="8.96" overlapTraveltime="9.96" density="56.68" laneDensity="28.34" occupancy="11.01" waitingTime="1868.00" timeLoss="3746.22" speed="4.32" speedRelative="0.52" departed="0" arrived="80" entered="797" left="718" laneChangedFrom="0" laneChangedTo="0"/>
        <edge id="337277951#4" sampledSeconds="4004.39" traveltime="4.56" overlapTraveltime="5.58" density="180.87" laneDensity="90.43" occupancy="31.23" waitingTime="1947.00" timeLoss="2993.18" speed="1.85" speedRelative="0.22" departed="0" arrived="0" entered="718" left="717" laneChangedFrom="0" laneChangedTo="0"/>
        <edge id="337277957#0" sampledSeconds="3399.91" traveltime="13.86" overlapTraveltime="14.39" density="8.94" laneDensity="4.47" occupancy="1.81" waitingTime="0.00" timeLoss="247.86" speed="7.63" speedRelative="0.92" departed="0" arrived="238" entered="239" left="0" laneChangedFrom="19" laneChangedTo="19"/>
        <edge id="337277970#1" sampledSeconds="14543.37" traveltime="17.42" overlapTraveltime="18.34" density="51.03" laneDensity="25.52" occupancy="10.29" waitingTime="3482.00" timeLoss="6438.31" speed="4.54" speedRelative="0.55" departed="0" arrived="80" entered="796" left="717" laneChangedFrom="109" laneChangedTo="109"/>
        <edge id="337277973#0" sampledSeconds="905.43" traveltime="0.63" overlapTraveltime="1.26" density="64.49" laneDensity="32.24" occupancy="6.50" waitingTime="0.00" timeLoss="199.09" speed="6.41" speedRelative="0.77" departed="0" arrived="0" entered="717" left="717" laneChangedFrom="0" laneChangedTo="0"/>
        <edge id="337277973#1" sampledSeconds="11023.20" traveltime="14.60" overlapTraveltime="15.50" density="39.82" laneDensity="19.91" occupancy="7.99" waitingTime="1692.00" timeLoss="4028.03" speed="5.23" speedRelative="0.63" departed="0" arrived="239" entered="717" left="476" laneChangedFrom="142" laneChangedTo="142"/>
        <edge id="337277981#1" sampledSeconds="3622.85" traveltime="5.97" overlapTraveltime="6.51" density="21.92" laneDensity="10.96" occupancy="4.20" waitingTime="0.00" timeLoss="225.46" speed="7.70" speedRelative="0.92" departed="0" arrived="0" entered="557" left="556" laneChangedFrom="160" laneChangedTo="160"/>
        <edge id="337277981#2" sampledSeconds="8268.90" traveltime="13.82" overlapTraveltime="14.87" density="58.83" laneDensity="29.42" occupancy="11.73" waitingTime="3342.00" timeLoss="5328.19" speed="2.91" speedRelative="0.35" departed="0" arrived="0" entered="556" left="558" laneChangedFrom="0" laneChangedTo="0"/>
        <edge id="337277984#0" sampledSeconds="2693.18" traveltime="10.95" overlapTraveltime="11.34" density="6.87" laneDensity="3.44" occupancy="1.39" waitingTime="0.00" timeLoss="255.92" speed="9.97" speedRelative="0.90" departed="0" arrived="239" entered="239" left="0" laneChangedFrom="13" laneChangedTo="13"/>
        <edge id="402944900" sampledSeconds="0.00" departed="0" arrived="0" entered="0" left="0" laneChangedFrom="0" laneChangedTo="0"/>
        <edge id="40668087#1" sampledSeconds="15492.47" traveltime="27.95" overlapTraveltime="28.81" density="40.69" laneDensity="40.69" occupancy="16.84" waitingTime="3122.00" timeLoss="8294.29" speed="3.82" speedRelative="0.46" departed="560" arrived="0" entered="0" left="558" laneChangedFrom="0" laneChangedTo="0"/>
        <edge id="42143912#3" sampledSeconds="0.00" departed="0" arrived="0" entered="0" left="0" laneChangedFrom="0" laneChangedTo="0"/>
        <edge id="42143912#4" sampledSeconds="0.00" departed="0" arrived="0" entered="0" left="0" laneChangedFrom="0" laneChangedTo="0"/>
        <edge id="42143912#5" sampledSeconds="7418.77" traveltime="24.53" overlapTraveltime="25.41" density="45.81" laneDensity="45.81" occupancy="18.85" waitingTime="3188.00" timeLoss="5674.45" speed="1.94" speedRelative="0.23" departed="320" arrived="0" entered="0" left="319" laneChangedFrom="0" laneChangedTo="0"/>
        <edge id="48903210#0" sampledSeconds="0.00" departed="0" arrived="0" entered="0" left="0" laneChangedFrom="0" laneChangedTo="0"/>
        <edge id="48903210#1" sampledSeconds="0.00" departed="0" arrived="0" entered="0" left="0" laneChangedFrom="0" laneChangedTo="0"/>