<?xml version="1.0" encoding="UTF-8"?>

<!-- generated on 2025-07-01 20:06:20 by Eclipse SUMO GUI Version v1_22_0+1225-450f2e124d0
<sumoConfiguration xmlns:xsi="http://www.w3.org/2001/XMLSchema-instance" xsi:noNamespaceSchemaLocation="http://sumo.dlr.de/xsd/sumoConfiguration.xsd">

    <input>
        <net-file value="/home/juanpablo/Desktop/cuenca-flow-optimizer/sumo_files/osm.net_static.xml"/>
        <route-files value="/home/juanpablo/Desktop/cuenca-flow-optimizer/sumo_files/generated_routes_very_high.rou.xml"/>
        <additional-files value="/home/juanpablo/Desktop/cuenca-flow-optimizer/sumo_files/osm.poly.xml.gz,/home/juanpablo/Desktop/cuenca-flow-optimizer/sumo_files/output.add.xml"/>
    </input>

    <output>
        <emission-output value="/home/juanpablo/Desktop/cuenca-flow-optimizer/experiments/static_very_high_00/emissions.xml"/>
        <tripinfo-output value="/home/juanpablo/Desktop/cuenca-flow-optimizer/experiments/static_very_high_00/tripinfo.xml"/>
        <statistic-output value="/home/juanpablo/Desktop/cuenca-flow-optimizer/experiments/static_very_high_00/stats.xml"/>
    </output>

    <time>
        <step-length value="1.0"/>
    </time>

    <processing>
        <ignore-route-errors value="true"/>
        <tls.actuated.jam-threshold value="30"/>
    </processing>

    <routing>
        <device.rerouting.probability value="0"/>
        <device.rerouting.pre-period value="0"/>
    </routing>

    <report>
        <verbose value="true"/>
        <duration-log.statistics value="true"/>
        <no-step-log value="true"/>
    </report>

    <traci_server>
        <remote-port value="49053"/>
    </traci_server>

    <random_number>
        <seed value="0"/>
    </random_number>

    <gui_only>
        <gui-settings-file value="/home/juanpablo/Desktop/cuenca-flow-optimizer/sumo_files/osm.view.xml"/>
        <quit-on-end value="true"/>
        <start value="true"/>
    </gui_only>

</sumoConfiguration>
-->

<meandata xmlns:xsi="http://www.w3.org/2001/XMLSchema-instance" xsi:noNamespaceSchemaLocation="http://sumo.dlr.de/xsd/meandata_file.xsd">
    <interval begin="0.00" end="312.00" id="wizard_example">
        <edge id="1053072563" sampledSeconds="145.46" traveltime="14.27" overlapTraveltime="14.81" density="4.32" laneDensity="4.32" occupancy="1.76" waitingTime="0.00" timeLoss="8.78" speed="7.57" speedRelative="0.91" departed="0" arrived="10" entered="10" left="0" laneChangedFrom="0" laneChangedTo="0"/>
        <edge id="1053199270" sampledSeconds="0.00" departed="0" arrived="0" entered="0" left="0" laneChangedFrom="0" laneChangedTo="0"/>
        <edge id="1081353722#1" sampledSeconds="0.00" departed="0" arrived="0" entered="0" left="0" laneChangedFrom="0" laneChangedTo="0"/>
        <edge id="1081353722#2" sampledSeconds="0.00" departed="0" arrived="0" entered="0" left="0" laneChangedFrom="0" laneChangedTo="0"/>
        <edge id="1081353722#3" sampledSeconds="0.00" departed="0" arrived="0" entered="0" left="0" laneChangedFrom="0" laneChangedTo="0"/>
        <edge id="1081353722#4" sampledSeconds="0.00" departed="0" arrived="0" entered="0" left="0" laneChangedFrom="0" laneChangedTo="0"/>
        <edge id="1081353722#5" sampledSeconds="0.00" departed="0" arrived="0" entered="0" left="0" laneChangedFrom="0" laneChangedTo="0"/>
        <edge id="1081353722#6" sampledSeconds="0.00" departed="0" arrived="0" entered="0" left="0" laneChangedFrom="0" laneChangedTo="0"/>
        <edge id="1081353722#7" sampledSeconds="0.00" departed="0" arrived="0" entered="0" left="0" laneChangedFrom="0" laneChangedTo="0"/>
        <edge id="1081353722#8" sampledSeconds="0.00" departed="0" arrived="0" entered="0" left="0" laneChangedFrom="0" laneChangedTo="0"/>
        <edge id="1175780997" sampledSeconds="0.00" departed="0" arrived="0" entered="0" left="0" laneChangedFrom="0" laneChangedTo="0"/>
        <edge id="1296513962#0" sampledSeconds="0.00" departed="0" arrived="0" entered="0" left="0" laneChangedFrom="0" laneChangedTo="0"/>
        <edge id="1296513962#1" sampledSeconds="0.00" departed="0" arrived="0" entered="0" left="0" laneChangedFrom="0" laneChangedTo="0"/>
        <edge id="1296513963" sampledSeconds="0.00" departed="0" arrived="0" entered="0" left="0" laneChangedFrom="0" laneChangedTo="0"/>
        <edge id="1296513964" sampledSeconds="0.00" departed="0" arrived="0" entered="0" left="0" laneChangedFrom="0" laneChangedTo="0"/>
        <edge id="1296513965" sampledSeconds="0.00" departed="0" arrived="0" entered="0" left="0" laneChangedFrom="0" laneChangedTo="0"/>
        <edge id="1296513967" sampledSeconds="0.00" departed="0" arrived="0" entered="0" left="0" laneChangedFrom="0" laneChangedTo="0"/>
        <edge id="1296513968" sampledSeconds="0.00" departed="0" arrived="0" entered="0" left="0" laneChangedFrom="0" laneChangedTo="0"/>
        <edge id="1296513969" sampledSeconds="0.00" departed="0" arrived="0" entered="0" left="0" laneChangedFrom="0" laneChangedTo="0"/>
        <edge id="1296513970" sampledSeconds="0.00" departed="0" arrived="0" entered="0" left="0" laneChangedFrom="0" laneChangedTo="0"/>
        <edge id="1296513971" sampledSeconds="0.00" departed="0" arrived="0" entered="0" left="0" laneChangedFrom="0" laneChangedTo="0"/>
        <edge id="304456533" sampledSeconds="0.00" departed="0" arrived="0" entered="0" left="0" laneChangedFrom="0" laneChangedTo="0"/>
        <edge id="337277951#1" sampledSeconds="210.14" traveltime="4.98" overlapTraveltime="5.54" density="18.56" laneDensity="9.28" occupancy="3.49" waitingTime="0.00" timeLoss="19.08" speed="7.30" speedRelative="0.88" departed="0" arrived="3" entered="38" left="35" laneChangedFrom="6" laneChangedTo="6"/>
        <edge id="337277951#2" sampledSeconds="23.96" traveltime="0.12" overlapTraveltime="0.68" density="84.40" laneDensity="42.20" occupancy="3.16" waitingTime="0.00" timeLoss="1.71" speed="7.46" speedRelative="0.90" departed="0" arrived="0" entered="35" left="35" laneChangedFrom="0" laneChangedTo="0"/>
        <edge id="337277951#3" sampledSeconds="426.62" traveltime="11.24" overlapTraveltime="12.25" density="35.24" laneDensity="17.62" occupancy="6.95" waitingTime="169.00" timeLoss="239.65" speed="3.51" speedRelative="0.42" departed="0" arrived="4" entered="35" left="31" laneChangedFrom="0" laneChangedTo="0"/>
        <edge id="337277951#4" sampledSeconds="242.51" traveltime="6.81" overlapTraveltime="7.82" density="126.39" laneDensity="63.19" occupancy="23.16" waitingTime="155.00" timeLoss="197.56" speed="1.32" speedRelative="0.16" departed="0" arrived="0" entered="31" left="31" laneChangedFrom="0" laneChangedTo="0"/>
        <edge id="337277957#0" sampledSeconds="111.88" traveltime="13.58" overlapTraveltime="14.09" density="3.40" laneDensity="1.70" occupancy="0.69" waitingTime="0.00" timeLoss="7.09" speed="7.79" speedRelative="0.94" departed="0" arrived="8" entered="8" left="0" laneChangedFrom="0" laneChangedTo="0"/>
        <edge id="337277970#1" sampledSeconds="835.35" traveltime="23.50" overlapTraveltime="24.55" density="33.82" laneDensity="16.91" occupancy="6.90" waitingTime="341.00" timeLoss="477.83" speed="3.40" speedRelative="0.41" departed="0" arrived="3" entered="35" left="26" laneChangedFrom="6" laneChangedTo="6"/>
        <edge id="337277973#0" sampledSeconds="41.59" traveltime="0.67" overlapTraveltime="1.34" density="34.18" laneDensity="17.09" occupancy="3.44" waitingTime="0.00" timeLoss="9.82" speed="6.04" speedRelative="0.72" departed="0" arrived="0" entered="31" left="31" laneChangedFrom="0" laneChangedTo="0"/>
        <edge id="337277973#1" sampledSeconds="596.09" traveltime="19.17" overlapTraveltime="20.04" density="24.85" laneDensity="12.42" occupancy="5.06" waitingTime="198.00" timeLoss="291.76" speed="4.05" speedRelative="0.49" departed="0" arrived="8" entered="31" left="17" laneChangedFrom="5" laneChangedTo="5"/>
        <edge id="337277981#1" sampledSeconds="164.95" traveltime="6.05" overlapTraveltime="6.60" density="11.52" laneDensity="5.76" occupancy="2.21" waitingTime="0.00" timeLoss="8.91" speed="7.59" speedRelative="0.91" departed="0" arrived="0" entered="25" left="25" laneChangedFrom="6" laneChangedTo="6"/>
        <edge id="337277981#2" sampledSeconds="562.74" traveltime="22.74" overlapTraveltime="23.98" density="46.20" laneDensity="23.10" occupancy="9.42" waitingTime="354.00" timeLoss="435.91" speed="1.80" speedRelative="0.22" departed="0" arrived="0" entered="25" left="20" laneChangedFrom="0" laneChangedTo="0"/>
        <edge id="337277984#0" sampledSeconds="89.99" traveltime="10.89" overlapTraveltime="11.29" density="2.65" laneDensity="1.32" occupancy="0.54" waitingTime="0.00" timeLoss="5.12" speed="10.01" speedRelative="0.90" departed="0" arrived="8" entered="8" left="0" laneChangedFrom="0" laneChangedTo="0"/>
        <edge id="402944900" sampledSeconds="0.00" departed="0" arrived="0" entered="0" left="0" laneChangedFrom="0" laneChangedTo="0"/>
        <edge id="40668087#1" sampledSeconds="522.91" traveltime="18.80" overlapTraveltime="19.44" density="15.85" laneDensity="15.85" occupancy="6.54" waitingTime="9.00" timeLoss="151.81" speed="5.66" speedRelative="0.68" departed="28" arrived="0" entered="0" left="28" laneChangedFrom="0" laneChangedTo="0"/>
        <edge id="42143912#3" sampledSeconds="0.00" departed="0" arrived="0" entered="0" left="0" laneChangedFrom="0" laneChangedTo="0"/>
        <edge id="42143912#4" sampledSeconds="0.00" departed="0" arrived="0" entered="0" left="0" laneChangedFrom="0" laneChangedTo="0"/>
        <edge id="42143912#5" sampledSeconds="239.82" traveltime="15.67" overlapTraveltime="16.42" density="17.08" laneDensity="17.08" occupancy="6.99" waitingTime="42.00" timeLoss="152.73" speed="2.99" speedRelative="0.36" departed="16" arrived="0" entered="0" left="16" laneChangedFrom="0" laneChangedTo="0"/>
        <edge id="48903210#0" sampledSeconds="0.00" departed="0" arrived="0" entered="0" left="0" laneChangedFrom="0" laneChangedTo="0"/>
        <edge id="48903210#1" sampledSeconds="0.00" departed="0" arrived="0" entered="0" left="0" laneChangedFrom="0" laneChangedTo="0"/>
        <edge id="49217102" sampledSeconds="383.38" traveltime="19.28" overlapTraveltime="19.95" density="11.66" laneDensity="11.66" occupancy="4.81" waitingTime="9.00" timeLoss="125.17" speed="5.49" speedRelative="0.66" departed="20" arrived="0" entered="0" left="20" laneChangedFrom="0" laneChangedTo="0"/>
        <edge id="542428845#0" sampledSeconds="179.43" traveltime="13.40" overlapTraveltime="13.93" density="5.53" laneDensity="5.53" occupancy="2.24" waitingTime="0.00" timeLoss="9.48" speed="7.76" speedRelative="0.93" departed="0" arrived="13" entered="13" left="0" laneChangedFrom="0" laneChangedTo="0"/>
        <edge id="567060312" sampledSeconds="0.00" departed="0" arrived="0" entered="0" left="0" laneChangedFrom="0" laneChangedTo="0"/>
        <edge id="567060313" sampledSeconds="0.00" departed="0" arrived="0" entered="0" left="0" laneChangedFrom="0" laneChangedTo="0"/>
        <edge id="567060325" sampledSeconds="0.00" departed="0" arrived="0" entered="0" left="0" laneChangedFrom="0" laneChangedTo="0"/>
        <edge id="567060342#0" sampledSeconds="101.21" traveltime="8.94" overlapTraveltime="9.48" density="9.37" laneDensity="9.37" occupancy="3.79" waitingTime="0.00" timeLoss="48.47" speed="4.09" speedRelative="0.49" departed="12" arrived="0" entered="0" left="12" laneChangedFrom="0" laneChangedTo="0"/>
        <edge id="567060342#1" sampledSeconds="519.69" traveltime="42.78" overlapTraveltime="44.21" density="25.41" laneDensity="25.41" occupancy="10.49" waitingTime="355.00" timeLoss="415.06" speed="1.58" speedRelative="0.19" departed="0" arrived="0" entered="12" left="10" laneChangedFrom="0" laneChangedTo="0"/>
    </interval>
</meandata>
