<?xml version="1.0" encoding="UTF-8"?>

<!-- generated on 2025-07-08 22:04:14 by Eclipse SUMO sumo Version v1_22_0+1225-450f2e124d0
<sumoConfiguration xmlns:xsi="http://www.w3.org/2001/XMLSchema-instance" xsi:noNamespaceSchemaLocation="http://sumo.dlr.de/xsd/sumoConfiguration.xsd">

    <input>
        <net-file value="/home/juanpablo/Desktop/cuenca-flow-optimizer/sumo_files/osm.net_static.xml"/>
        <route-files value="/home/juanpablo/Desktop/cuenca-flow-optimizer/sumo_files/generated_routes_medium_extended.rou.xml"/>
        <additional-files value="/home/juanpablo/Desktop/cuenca-flow-optimizer/sumo_files/osm.poly.xml.gz,/home/juanpablo/Desktop/cuenca-flow-optimizer/sumo_files/output.add.xml"/>
    </input>

    <output>
        <emission-output value="/home/juanpablo/Desktop/cuenca-flow-optimizer/experiments/static_medium_extended_15/emissions.xml"/>
        <tripinfo-output value="/home/juanpablo/Desktop/cuenca-flow-optimizer/experiments/static_medium_extended_15/tripinfo.xml"/>
        <statistic-output value="/home/juanpablo/Desktop/cuenca-flow-optimizer/experiments/static_medium_extended_15/stats.xml"/>
    </output>

    <time>
        <step-length value="1.0"/>
    </time>

    <processing>
        <ignore-route-errors value="true"/>
        <tls.actuated.jam-threshold value="30"/>
    </processing>

    <routing>
        <device.rerouting.probability value="0"/>
        <device.rerouting.pre-period value="0"/>
    </routing>

    <report>
        <verbose value="true"/>
        <duration-log.statistics value="true"/>
        <no-step-log value="true"/>
    </report>

    <traci_server>
        <remote-port value="34771"/>
    </traci_server>

    <random_number>
        <seed value="15"/>
    </random_number>

    <gui_only>
        <gui-settings-file value="/home/juanpablo/Desktop/cuenca-flow-optimizer/sumo_files/osm.view.xml"/>
        <quit-on-end value="true"/>
        <start value="true"/>
    </gui_only>

</sumoConfiguration>
-->

<meandata xmlns:xsi="http://www.w3.org/2001/XMLSchema-instance" xsi:noNamespaceSchemaLocation="http://sumo.dlr.de/xsd/meandata_file.xsd">
    <interval begin="0.00" end="3600.00" id="wizard_example">
        <edge id="1053072563" sampledSeconds="1092.81" traveltime="13.99" overlapTraveltime="14.52" density="2.81" laneDensity="2.81" occupancy="1.14" waitingTime="0.00" timeLoss="71.07" speed="7.73" speedRelative="0.93" departed="0" arrived="76" entered="76" left="0" laneChangedFrom="0" laneChangedTo="0"/>
        <edge id="1053199270" sampledSeconds="0.00" departed="0" arrived="0" entered="0" left="0" laneChangedFrom="0" laneChangedTo="0"/>
        <edge id="1081353722#1" sampledSeconds="0.00" departed="0" arrived="0" entered="0" left="0" laneChangedFrom="0" laneChangedTo="0"/>
        <edge id="1081353722#2" sampledSeconds="0.00" departed="0" arrived="0" entered="0" left="0" laneChangedFrom="0" laneChangedTo="0"/>
        <edge id="1081353722#3" sampledSeconds="0.00" departed="0" arrived="0" entered="0" left="0" laneChangedFrom="0" laneChangedTo="0"/>
        <edge id="1081353722#4" sampledSeconds="0.00" departed="0" arrived="0" entered="0" left="0" laneChangedFrom="0" laneChangedTo="0"/>
        <edge id="1081353722#5" sampledSeconds="0.00" departed="0" arrived="0" entered="0" left="0" laneChangedFrom="0" laneChangedTo="0"/>
        <edge id="1081353722#6" sampledSeconds="0.00" departed="0" arrived="0" entered="0" left="0" laneChangedFrom="0" laneChangedTo="0"/>
        <edge id="1081353722#7" sampledSeconds="0.00" departed="0" arrived="0" entered="0" left="0" laneChangedFrom="0" laneChangedTo="0"/>
        <edge id="1081353722#8" sampledSeconds="0.00" departed="0" arrived="0" entered="0" left="0" laneChangedFrom="0" laneChangedTo="0"/>
        <edge id="1175780997" sampledSeconds="0.00" departed="0" arrived="0" entered="0" left="0" laneChangedFrom="0" laneChangedTo="0"/>
        <edge id="1296513962#0" sampledSeconds="0.00" departed="0" arrived="0" entered="0" left="0" laneChangedFrom="0" laneChangedTo="0"/>
        <edge id="1296513962#1" sampledSeconds="0.00" departed="0" arrived="0" entered="0" left="0" laneChangedFrom="0" laneChangedTo="0"/>
        <edge id="1296513963" sampledSeconds="0.00" departed="0" arrived="0" entered="0" left="0" laneChangedFrom="0" laneChangedTo="0"/>
        <edge id="1296513964" sampledSeconds="0.00" departed="0" arrived="0" entered="0" left="0" laneChangedFrom="0" laneChangedTo="0"/>
        <edge id="1296513965" sampledSeconds="0.00" departed="0" arrived="0" entered="0" left="0" laneChangedFrom="0" laneChangedTo="0"/>
        <edge id="1296513967" sampledSeconds="0.00" departed="0" arrived="0" entered="0" left="0" laneChangedFrom="0" laneChangedTo="0"/>
        <edge id="1296513968" sampledSeconds="0.00" departed="0" arrived="0" entered="0" left="0" laneChangedFrom="0" laneChangedTo="0"/>
        <edge id="1296513969" sampledSeconds="0.00" departed="0" arrived="0" entered="0" left="0" laneChangedFrom="0" laneChangedTo="0"/>
        <edge id="1296513970" sampledSeconds="0.00" departed="0" arrived="0" entered="0" left="0" laneChangedFrom="0" laneChangedTo="0"/>
        <edge id="1296513971" sampledSeconds="0.00" departed="0" arrived="0" entered="0" left="0" laneChangedFrom="0" laneChangedTo="0"/>
        <edge id="304456533" sampledSeconds="0.00" departed="0" arrived="0" entered="0" left="0" laneChangedFrom="0" laneChangedTo="0"/>
        <edge id="337277951#1" sampledSeconds="1535.32" traveltime="4.85" overlapTraveltime="5.38" density="11.76" laneDensity="5.88" occupancy="2.20" waitingTime="0.00" timeLoss="141.86" speed="7.52" speedRelative="0.90" departed="0" arrived="26" entered="286" left="260" laneChangedFrom="52" laneChangedTo="52"/>
        <edge id="337277951#2" sampledSeconds="170.02" traveltime="0.12" overlapTraveltime="0.65" density="51.90" laneDensity="25.95" occupancy="1.94" waitingTime="0.00" timeLoss="9.90" speed="7.81" speedRelative="0.94" departed="0" arrived="0" entered="260" left="260" laneChangedFrom="0" laneChangedTo="0"/>
        <edge id="337277951#3" sampledSeconds="3775.96" traveltime="13.55" overlapTraveltime="14.59" density="27.03" laneDensity="13.52" occupancy="5.38" waitingTime="1805.00" timeLoss="2431.45" speed="2.95" speedRelative="0.35" departed="0" arrived="26" entered="260" left="231" laneChangedFrom="0" laneChangedTo="0"/>
        <edge id="337277951#4" sampledSeconds="2211.26" traveltime="8.54" overlapTraveltime="9.61" density="99.88" laneDensity="49.94" occupancy="18.73" waitingTime="1521.00" timeLoss="1889.89" speed="1.08" speedRelative="0.13" departed="0" arrived="0" entered="231" left="229" laneChangedFrom="0" laneChangedTo="0"/>
        <edge id="337277957#0" sampledSeconds="1101.00" traveltime="13.73" overlapTraveltime="14.27" density="2.90" laneDensity="1.45" occupancy="0.59" waitingTime="0.00" timeLoss="54.64" speed="7.70" speedRelative="0.92" departed="0" arrived="78" entered="78" left="0" laneChangedFrom="16" laneChangedTo="16"/>
        <edge id="337277970#1" sampledSeconds="6896.88" traveltime="25.57" overlapTraveltime="26.60" density="24.20" laneDensity="12.10" occupancy="4.94" waitingTime="3206.00" timeLoss="4255.31" speed="3.13" speedRelative="0.38" departed="0" arrived="26" entered="260" left="234" laneChangedFrom="26" laneChangedTo="26"/>
        <edge id="337277973#0" sampledSeconds="296.44" traveltime="0.65" overlapTraveltime="1.28" density="21.11" laneDensity="10.56" occupancy="2.13" waitingTime="0.00" timeLoss="70.83" speed="6.31" speedRelative="0.76" departed="0" arrived="0" entered="231" left="231" laneChangedFrom="0" laneChangedTo="0"/>
        <edge id="337277973#1" sampledSeconds="4788.53" traveltime="19.85" overlapTraveltime="20.86" density="17.30" laneDensity="8.65" occupancy="3.51" waitingTime="1763.00" timeLoss="2548.98" speed="3.89" speedRelative="0.47" departed="0" arrived="76" entered="231" left="155" laneChangedFrom="50" laneChangedTo="50"/>
        <edge id="337277981#1" sampledSeconds="1181.62" traveltime="5.96" overlapTraveltime="6.49" density="7.15" laneDensity="3.57" occupancy="1.37" waitingTime="0.00" timeLoss="70.49" speed="7.72" speedRelative="0.93" departed="0" arrived="0" entered="182" left="182" laneChangedFrom="52" laneChangedTo="52"/>
        <edge id="337277981#2" sampledSeconds="3585.11" traveltime="18.69" overlapTraveltime="19.70" density="25.51" laneDensity="12.75" occupancy="5.16" waitingTime="2058.00" timeLoss="2622.04" speed="2.20" speedRelative="0.26" departed="0" arrived="0" entered="182" left="182" laneChangedFrom="0" laneChangedTo="0"/>
        <edge id="337277984#0" sampledSeconds="874.47" traveltime="11.03" overlapTraveltime="11.43" density="2.23" laneDensity="1.12" occupancy="0.45" waitingTime="0.00" timeLoss="93.77" speed="9.89" speedRelative="0.89" departed="0" arrived="77" entered="77" left="0" laneChangedFrom="2" laneChangedTo="2"/>
        <edge id="402944900" sampledSeconds="0.00" departed="0" arrived="0" entered="0" left="0" laneChangedFrom="0" laneChangedTo="0"/>
        <edge id="40668087#1" sampledSeconds="6378.86" traveltime="35.70" overlapTraveltime="36.48" density="16.75" laneDensity="16.75" occupancy="6.96" waitingTime="2483.00" timeLoss="4050.24" speed="3.01" speedRelative="0.36" departed="182" arrived="0" entered="0" left="182" laneChangedFrom="0" laneChangedTo="0"/>
        <edge id="42143912#3" sampledSeconds="0.00" departed="0" arrived="0" entered="0" left="0" laneChangedFrom="0" laneChangedTo="0"/>
        <edge id="42143912#4" sampledSeconds="0.00" departed="0" arrived="0" entered="0" left="0" laneChangedFrom="0" laneChangedTo="0"/>
        <edge id="42143912#5" sampledSeconds="2655.13" traveltime="27.23" overlapTraveltime="27.98" density="16.39" laneDensity="16.39" occupancy="6.77" waitingTime="1323.00" timeLoss="2080.79" speed="1.76" speedRelative="0.21" departed="104" arrived="0" entered="0" left="104" laneChangedFrom="0" laneChangedTo="0"/>
        <edge id="48903210#0" sampledSeconds="0.00" departed="0" arrived="0" entered="0" left="0" laneChangedFrom="0" laneChangedTo="0"/>
        <edge id="48903210#1" sampledSeconds="0.00" departed="0" arrived="0" entered="0" left="0" laneChangedFrom="0" laneChangedTo="0"/>
        <edge id="49217102" sampledSeconds="4429.10" traveltime="34.64" overlapTraveltime="35.46" density="11.67" laneDensity="11.67" occupancy="4.84" waitingTime="1732.00" timeLoss="2781.42" speed="3.09" speedRelative="0.37" departed="130" arrived="0" entered="0" left="130" laneChangedFrom="0" laneChangedTo="0"/>
        <edge id="542428845#0" sampledSeconds="1431.57" traveltime="13.37" overlapTraveltime="13.90" density="3.83" laneDensity="3.83" occupancy="1.55" waitingTime="0.00" timeLoss="75.04" speed="7.78" speedRelative="0.93" departed="0" arrived="104" entered="104" left="0" laneChangedFrom="0" laneChangedTo="0"/>
        <edge id="567060312" sampledSeconds="0.00" departed="0" arrived="0" entered="0" left="0" laneChangedFrom="0" laneChangedTo="0"/>
        <edge id="567060313" sampledSeconds="0.00" departed="0" arrived="0" entered="0" left="0" laneChangedFrom="0" laneChangedTo="0"/>
        <edge id="567060325" sampledSeconds="0.00" departed="0" arrived="0" entered="0" left="0" laneChangedFrom="0" laneChangedTo="0"/>
        <edge id="567060342#0" sampledSeconds="652.02" traveltime="8.90" overlapTraveltime="9.40" density="5.23" laneDensity="5.23" occupancy="2.12" waitingTime="0.00" timeLoss="325.87" speed="4.13" speedRelative="0.50" departed="78" arrived="0" entered="0" left="78" laneChangedFrom="0" laneChangedTo="0"/>
        <edge id="567060342#1" sampledSeconds="1862.57" traveltime="22.95" overlapTraveltime="23.88" density="7.89" laneDensity="7.89" occupancy="3.22" waitingTime="946.00" timeLoss="1203.85" speed="2.92" speedRelative="0.35" departed="0" arrived="0" entered="78" left="78" laneChangedFrom="0" laneChangedTo="0"/>
    </interval>
    <interval begin="3600.00" end="7200.00" id="wizard_example">
        <edge id="1053072563" sampledSeconds="1487.96" traveltime="14.24" overlapTraveltime="14.78" density="3.83" laneDensity="3.83" occupancy="1.56" waitingTime="0.00" timeLoss="121.49" speed="7.59" speedRelative="0.91" departed="0" arrived="102" entered="102" left="0" laneChangedFrom="0" laneChangedTo="0"/>
        <edge id="1053199270" sampledSeconds="0.00" departed="0" arrived="0" entered="0" left="0" laneChangedFrom="0" laneChangedTo="0"/>
        <edge id="1081353722#1" sampledSeconds="0.00" departed="0" arrived="0" entered="0" left="0" laneChangedFrom="0" laneChangedTo="0"/>
        <edge id="1081353722#2" sampledSeconds="0.00" departed="0" arrived="0" entered="0" left="0" laneChangedFrom="0" laneChangedTo="0"/>
        <edge id="1081353722#3" sampledSeconds="0.00" departed="0" arrived="0" entered="0" left="0" laneChangedFrom="0" laneChangedTo="0"/>
        <edge id="1081353722#4" sampledSeconds="0.00" departed="0" arrived="0" entered="0" left="0" laneChangedFrom="0" laneChangedTo="0"/>
        <edge id="1081353722#5" sampledSeconds="0.00" departed="0" arrived="0" entered="0" left="0" laneChangedFrom="0" laneChangedTo="0"/>
        <edge id="1081353722#6" sampledSeconds="0.00" departed="0" arrived="0" entered="0" left="0" laneChangedFrom="0" laneChangedTo="0"/>
        <edge id="1081353722#7" sampledSeconds="0.00" departed="0" arrived="0" entered="0" left="0" laneChangedFrom="0" laneChangedTo="0"/>
        <edge id="1081353722#8" sampledSeconds="0.00" departed="0" arrived="0" entered="0" left="0" laneChangedFrom="0" laneChangedTo="0"/>
        <edge id="1175780997" sampledSeconds="0.00" departed="0" arrived="0" entered="0" left="0" laneChangedFrom="0" laneChangedTo="0"/>
        <edge id="1296513962#0" sampledSeconds="0.00" departed="0" arrived="0" entered="0" left="0" laneChangedFrom="0" laneChangedTo="0"/>
        <edge id="1296513962#1" sampledSeconds="0.00" departed="0" arrived="0" entered="0" left="0" laneChangedFrom="0" laneChangedTo="0"/>
        <edge id="1296513963" sampledSeconds="0.00" departed="0" arrived="0" entered="0" left="0" laneChangedFrom="0" laneChangedTo="0"/>
        <edge id="1296513964" sampledSeconds="0.00" departed="0" arrived="0" entered="0" left="0" laneChangedFrom="0" laneChangedTo="0"/>
        <edge id="1296513965" sampledSeconds="0.00" departed="0" arrived="0" entered="0" left="0" laneChangedFrom="0" laneChangedTo="0"/>
        <edge id="1296513967" sampledSeconds="0.00" departed="0" arrived="0" entered="0" left="0" laneChangedFrom="0" laneChangedTo="0"/>
        <edge id="1296513968" sampledSeconds="0.00" departed="0" arrived="0" entered="0" left="0" laneChangedFrom="0" laneChangedTo="0"/>
        <edge id="1296513969" sampledSeconds="0.00" departed="0" arrived="0" entered="0" left="0" laneChangedFrom="0" laneChangedTo="0"/>
        <edge id="1296513970" sampledSeconds="0.00" departed="0" arrived="0" entered="0" left="0" laneChangedFrom="0" laneChangedTo="0"/>
        <edge id="1296513971" sampledSeconds="0.00" departed="0" arrived="0" entered="0" left="0" laneChangedFrom="0" laneChangedTo="0"/>
        <edge id="304456533" sampledSeconds="0.00" departed="0" arrived="0" entered="0" left="0" laneChangedFrom="0" laneChangedTo="0"/>
        <edge id="337277951#1" sampledSeconds="2001.92" traveltime="4.83" overlapTraveltime="5.37" density="15.33" laneDensity="7.66" occupancy="2.88" waitingTime="0.00" timeLoss="176.97" speed="7.54" speedRelative="0.90" departed="0" arrived="34" entered="374" left="340" laneChangedFrom="68" laneChangedTo="68"/>
        <edge id="337277951#2" sampledSeconds="222.13" traveltime="0.12" overlapTraveltime="0.65" density="67.81" laneDensity="33.90" occupancy="2.54" waitingTime="0.00" timeLoss="11.83" speed="7.82" speedRelative="0.94" departed="0" arrived="0" entered="340" left="340" laneChangedFrom="0" laneChangedTo="0"/>
        <edge id="337277951#3" sampledSeconds="4862.20" traveltime="13.29" overlapTraveltime="14.33" density="34.81" laneDensity="17.40" occupancy="6.92" waitingTime="2263.00" timeLoss="3089.98" speed="3.00" speedRelative="0.36" departed="0" arrived="34" entered="340" left="306" laneChangedFrom="0" laneChangedTo="0"/>
        <edge id="337277951#4" sampledSeconds="2912.85" traveltime="8.46" overlapTraveltime="9.52" density="131.56" laneDensity="65.78" occupancy="24.62" waitingTime="1987.00" timeLoss="2482.03" speed="1.09" speedRelative="0.13" departed="0" arrived="0" entered="306" left="306" laneChangedFrom="0" laneChangedTo="0"/>
        <edge id="337277957#0" sampledSeconds="1402.64" traveltime="13.52" overlapTraveltime="14.05" density="3.69" laneDensity="1.84" occupancy="0.75" waitingTime="0.00" timeLoss="76.44" speed="7.81" speedRelative="0.94" departed="0" arrived="101" entered="101" left="0" laneChangedFrom="28" laneChangedTo="28"/>
        <edge id="337277970#1" sampledSeconds="8897.31" traveltime="25.26" overlapTraveltime="26.29" density="31.22" laneDensity="15.61" occupancy="6.37" waitingTime="4099.00" timeLoss="5475.01" speed="3.17" speedRelative="0.38" departed="0" arrived="34" entered="340" left="305" laneChangedFrom="34" laneChangedTo="34"/>
        <edge id="337277973#0" sampledSeconds="398.01" traveltime="0.66" overlapTraveltime="1.30" density="28.35" laneDensity="14.17" occupancy="2.86" waitingTime="0.00" timeLoss="95.39" speed="6.23" speedRelative="0.75" departed="0" arrived="0" entered="306" left="306" laneChangedFrom="0" laneChangedTo="0"/>
        <edge id="337277973#1" sampledSeconds="6465.57" traveltime="20.26" overlapTraveltime="21.25" density="23.36" laneDensity="11.68" occupancy="4.74" waitingTime="2348.00" timeLoss="3459.44" speed="3.82" speedRelative="0.46" departed="0" arrived="102" entered="306" left="204" laneChangedFrom="63" laneChangedTo="63"/>
        <edge id="337277981#1" sampledSeconds="1538.93" traveltime="5.93" overlapTraveltime="6.47" density="9.31" laneDensity="4.66" occupancy="1.79" waitingTime="0.00" timeLoss="86.51" speed="7.75" speedRelative="0.93" departed="0" arrived="0" entered="238" left="238" laneChangedFrom="68" laneChangedTo="68"/>
        <edge id="337277981#2" sampledSeconds="4761.83" traveltime="19.00" overlapTraveltime="20.01" density="33.88" laneDensity="16.94" occupancy="6.85" waitingTime="2755.00" timeLoss="3503.22" speed="2.16" speedRelative="0.26" departed="0" arrived="0" entered="238" left="238" laneChangedFrom="0" laneChangedTo="0"/>
        <edge id="337277984#0" sampledSeconds="1164.16" traveltime="11.12" overlapTraveltime="11.52" density="2.97" laneDensity="1.49" occupancy="0.60" waitingTime="0.00" timeLoss="127.06" speed="9.81" speedRelative="0.88" departed="0" arrived="102" entered="102" left="0" laneChangedFrom="4" laneChangedTo="4"/>
        <edge id="402944900" sampledSeconds="0.00" departed="0" arrived="0" entered="0" left="0" laneChangedFrom="0" laneChangedTo="0"/>
        <edge id="40668087#1" sampledSeconds="8345.80" traveltime="35.73" overlapTraveltime="36.49" density="21.92" laneDensity="21.92" occupancy="9.11" waitingTime="3292.00" timeLoss="5320.21" speed="3.01" speedRelative="0.36" departed="238" arrived="0" entered="0" left="238" laneChangedFrom="0" laneChangedTo="0"/>
        <edge id="42143912#3" sampledSeconds="0.00" departed="0" arrived="0" entered="0" left="0" laneChangedFrom="0" laneChangedTo="0"/>
        <edge id="42143912#4" sampledSeconds="0.00" departed="0" arrived="0" entered="0" left="0" laneChangedFrom="0" laneChangedTo="0"/>
        <edge id="42143912#5" sampledSeconds="3428.92" traveltime="26.90" overlapTraveltime="27.63" density="21.17" laneDensity="21.17" occupancy="8.74" waitingTime="1696.00" timeLoss="2696.78" speed="1.78" speedRelative="0.21" departed="136" arrived="0" entered="0" left="136" laneChangedFrom="0" laneChangedTo="0"/>
        <edge id="48903210#0" sampledSeconds="0.00" departed="0" arrived="0" entered="0" left="0" laneChangedFrom="0" laneChangedTo="0"/>
        <edge id="48903210#1" sampledSeconds="0.00" departed="0" arrived="0" entered="0" left="0" laneChangedFrom="0" laneChangedTo="0"/>
        <edge id="49217102" sampledSeconds="5758.29" traveltime="34.44" overlapTraveltime="35.26" density="15.17" laneDensity="15.17" occupancy="6.30" waitingTime="2218.00" timeLoss="3583.92" speed="3.11" speedRelative="0.37" departed="170" arrived="0" entered="0" left="170" laneChangedFrom="0" laneChangedTo="0"/>
        <edge id="542428845#0" sampledSeconds="1882.67" traveltime="13.50" overlapTraveltime="14.03" density="5.03" laneDensity="5.03" occupancy="2.04" waitingTime="0.00" timeLoss="104.67" speed="7.70" speedRelative="0.92" departed="0" arrived="135" entered="136" left="0" laneChangedFrom="0" laneChangedTo="0"/>
        <edge id="567060312" sampledSeconds="0.00" departed="0" arrived="0" entered="0" left="0" laneChangedFrom="0" laneChangedTo="0"/>
        <edge id="567060313" sampledSeconds="0.00" departed="0" arrived="0" entered="0" left="0" laneChangedFrom="0" laneChangedTo="0"/>
        <edge id="567060325" sampledSeconds="0.00" departed="0" arrived="0" entered="0" left="0" laneChangedFrom="0" laneChangedTo="0"/>
        <edge id="567060342#0" sampledSeconds="850.85" traveltime="8.87" overlapTraveltime="9.38" density="6.82" laneDensity="6.82" occupancy="2.77" waitingTime="0.00" timeLoss="417.78" speed="4.14" speedRelative="0.50" departed="102" arrived="0" entered="0" left="102" laneChangedFrom="0" laneChangedTo="0"/>
        <edge id="567060342#1" sampledSeconds="2408.40" traveltime="22.68" overlapTraveltime="23.61" density="10.21" laneDensity="10.21" occupancy="4.16" waitingTime="1208.00" timeLoss="1533.73" speed="2.95" speedRelative="0.35" departed="0" arrived="0" entered="102" left="102" laneChangedFrom="0" laneChangedTo="0"/>
    </interval>
    <interval begin="7200.00" end="10800.00" id="wizard_example">
        <edge id="1053072563" sampledSeconds="1769.42" traveltime="14.36" overlapTraveltime="14.90" density="4.55" laneDensity="4.55" occupancy="1.85" waitingTime="0.00" timeLoss="133.92" speed="7.52" speedRelative="0.90" departed="0" arrived="120" entered="120" left="0" laneChangedFrom="0" laneChangedTo="0"/>
        <edge id="1053199270" sampledSeconds="0.00" departed="0" arrived="0" entered="0" left="0" laneChangedFrom="0" laneChangedTo="0"/>
        <edge id="1081353722#1" sampledSeconds="0.00" departed="0" arrived="0" entered="0" left="0" laneChangedFrom="0" laneChangedTo="0"/>
        <edge id="1081353722#2" sampledSeconds="0.00" departed="0" arrived="0" entered="0" left="0" laneChangedFrom="0" laneChangedTo="0"/>
        <edge id="1081353722#3" sampledSeconds="0.00" departed="0" arrived="0" entered="0" left="0" laneChangedFrom="0" laneChangedTo="0"/>
        <edge id="1081353722#4" sampledSeconds="0.00" departed="0" arrived="0" entered="0" left="0" laneChangedFrom="0" laneChangedTo="0"/>
        <edge id="1081353722#5" sampledSeconds="0.00" departed="0" arrived="0" entered="0" left="0" laneChangedFrom="0" laneChangedTo="0"/>
        <edge id="1081353722#6" sampledSeconds="0.00" departed="0" arrived="0" entered="0" left="0" laneChangedFrom="0" laneChangedTo="0"/>
        <edge id="1081353722#7" sampledSeconds="0.00" departed="0" arrived="0" entered="0" left="0" laneChangedFrom="0" laneChangedTo="0"/>
        <edge id="1081353722#8" sampledSeconds="0.00" departed="0" arrived="0" entered="0" left="0" laneChangedFrom="0" laneChangedTo="0"/>
        <edge id="1175780997" sampledSeconds="0.00" departed="0" arrived="0" entered="0" left="0" laneChangedFrom="0" laneChangedTo="0"/>
        <edge id="1296513962#0" sampledSeconds="0.00" departed="0" arrived="0" entered="0" left="0" laneChangedFrom="0" laneChangedTo="0"/>
        <edge id="1296513962#1" sampledSeconds="0.00" departed="0" arrived="0" entered="0" left="0" laneChangedFrom="0" laneChangedTo="0"/>
        <edge id="1296513963" sampledSeconds="0.00" departed="0" arrived="0" entered="0" left="0" laneChangedFrom="0" laneChangedTo="0"/>
        <edge id="1296513964" sampledSeconds="0.00" departed="0" arrived="0" entered="0" left="0" laneChangedFrom="0" laneChangedTo="0"/>
        <edge id="1296513965" sampledSeconds="0.00" departed="0" arrived="0" entered="0" left="0" laneChangedFrom="0" laneChangedTo="0"/>
        <edge id="1296513967" sampledSeconds="0.00" departed="0" arrived="0" entered="0" left="0" laneChangedFrom="0" laneChangedTo="0"/>
        <edge id="1296513968" sampledSeconds="0.00" departed="0" arrived="0" entered="0" left="0" laneChangedFrom="0" laneChangedTo="0"/>
        <edge id="1296513969" sampledSeconds="0.00" departed="0" arrived="0" entered="0" left="0" laneChangedFrom="0" laneChangedTo="0"/>
        <edge id="1296513970" sampledSeconds="0.00" departed="0" arrived="0" entered="0" left="0" laneChangedFrom="0" laneChangedTo="0"/>
        <edge id="1296513971" sampledSeconds="0.00" departed="0" arrived="0" entered="0" left="0" laneChangedFrom="0" laneChangedTo="0"/>
        <edge id="304456533" sampledSeconds="0.00" departed="0" arrived="0" entered="0" left="0" laneChangedFrom="0" laneChangedTo="0"/>
        <edge id="337277951#1" sampledSeconds="2372.08" traveltime="4.87" overlapTraveltime="5.41" density="18.16" laneDensity="9.08" occupancy="3.41" waitingTime="0.00" timeLoss="200.84" speed="7.48" speedRelative="0.90" departed="0" arrived="40" entered="440" left="400" laneChangedFrom="80" laneChangedTo="80"/>
        <edge id="337277951#2" sampledSeconds="263.72" traveltime="0.12" overlapTraveltime="0.66" density="80.50" laneDensity="40.25" occupancy="3.01" waitingTime="0.00" timeLoss="14.83" speed="7.75" speedRelative="0.93" departed="0" arrived="0" entered="400" left="400" laneChangedFrom="0" laneChangedTo="0"/>
        <edge id="337277951#3" sampledSeconds="5817.01" traveltime="13.57" overlapTraveltime="14.61" density="41.65" laneDensity="20.82" occupancy="8.28" waitingTime="2730.00" timeLoss="3728.04" speed="2.94" speedRelative="0.35" departed="0" arrived="40" entered="400" left="358" laneChangedFrom="0" laneChangedTo="0"/>
        <edge id="337277951#4" sampledSeconds="3263.40" traveltime="8.07" overlapTraveltime="9.12" density="147.40" laneDensity="73.70" occupancy="27.46" waitingTime="2212.00" timeLoss="2759.11" speed="1.14" speedRelative="0.14" departed="0" arrived="0" entered="358" left="358" laneChangedFrom="0" laneChangedTo="0"/>
        <edge id="337277957#0" sampledSeconds="1666.71" traveltime="13.53" overlapTraveltime="14.06" density="4.38" laneDensity="2.19" occupancy="0.89" waitingTime="0.00" timeLoss="87.94" speed="7.81" speedRelative="0.94" departed="0" arrived="120" entered="120" left="0" laneChangedFrom="28" laneChangedTo="28"/>
        <edge id="337277970#1" sampledSeconds="10773.56" traveltime="25.98" overlapTraveltime="26.97" density="37.81" laneDensity="18.90" occupancy="7.72" waitingTime="4945.00" timeLoss="6657.85" speed="3.09" speedRelative="0.37" departed="0" arrived="40" entered="400" left="360" laneChangedFrom="41" laneChangedTo="41"/>
        <edge id="337277973#0" sampledSeconds="459.07" traveltime="0.64" overlapTraveltime="1.28" density="32.70" laneDensity="16.35" occupancy="3.30" waitingTime="0.00" timeLoss="107.06" speed="6.32" speedRelative="0.76" departed="0" arrived="0" entered="358" left="358" laneChangedFrom="0" laneChangedTo="0"/>
        <edge id="337277973#1" sampledSeconds="7735.53" traveltime="20.77" overlapTraveltime="21.75" density="27.95" laneDensity="13.97" occupancy="5.68" waitingTime="2861.00" timeLoss="4242.58" speed="3.73" speedRelative="0.45" departed="0" arrived="120" entered="358" left="238" laneChangedFrom="64" laneChangedTo="64"/>
        <edge id="337277981#1" sampledSeconds="1802.37" traveltime="5.93" overlapTraveltime="6.46" density="10.91" laneDensity="5.45" occupancy="2.09" waitingTime="0.00" timeLoss="106.68" speed="7.76" speedRelative="0.93" departed="0" arrived="0" entered="279" left="279" laneChangedFrom="79" laneChangedTo="79"/>
        <edge id="337277981#2" sampledSeconds="5699.40" traveltime="19.42" overlapTraveltime="20.43" density="40.55" laneDensity="20.28" occupancy="8.21" waitingTime="3306.00" timeLoss="4229.64" speed="2.12" speedRelative="0.25" departed="0" arrived="0" entered="279" left="279" laneChangedFrom="0" laneChangedTo="0"/>
        <edge id="337277984#0" sampledSeconds="1353.06" traveltime="11.05" overlapTraveltime="11.45" density="3.45" laneDensity="1.73" occupancy="0.70" waitingTime="0.00" timeLoss="139.65" speed="9.87" speedRelative="0.89" departed="0" arrived="119" entered="119" left="0" laneChangedFrom="2" laneChangedTo="2"/>
        <edge id="402944900" sampledSeconds="0.00" departed="0" arrived="0" entered="0" left="0" laneChangedFrom="0" laneChangedTo="0"/>
        <edge id="40668087#1" sampledSeconds="9901.67" traveltime="36.04" overlapTraveltime="36.80" density="26.01" laneDensity="26.01" occupancy="10.81" waitingTime="3920.00" timeLoss="6255.05" speed="2.99" speedRelative="0.36" departed="280" arrived="0" entered="0" left="280" laneChangedFrom="0" laneChangedTo="0"/>
        <edge id="42143912#3" sampledSeconds="0.00" departed="0" arrived="0" entered="0" left="0" laneChangedFrom="0" laneChangedTo="0"/>
        <edge id="42143912#4" sampledSeconds="0.00" departed="0" arrived="0" entered="0" left="0" laneChangedFrom="0" laneChangedTo="0"/>
        <edge id="42143912#5" sampledSeconds="4078.95" traveltime="27.22" overlapTraveltime="27.94" density="25.18" laneDensity="25.18" occupancy="10.40" waitingTime="2052.00" timeLoss="3209.69" speed="1.76" speedRelative="0.21" departed="160" arrived="0" entered="0" left="160" laneChangedFrom="0" laneChangedTo="0"/>
        <edge id="48903210#0" sampledSeconds="0.00" departed="0" arrived="0" entered="0" left="0" laneChangedFrom="0" laneChangedTo="0"/>
        <edge id="48903210#1" sampledSeconds="0.00" departed="0" arrived="0" entered="0" left="0" laneChangedFrom="0" laneChangedTo="0"/>