<?xml version="1.0" encoding="UTF-8"?>

<!-- generated on 2025-06-21 22:10:08 by Eclipse SUMO sumo Version v1_22_0+1225-450f2e124d0
<sumoConfiguration xmlns:xsi="http://www.w3.org/2001/XMLSchema-instance" xsi:noNamespaceSchemaLocation="http://sumo.dlr.de/xsd/sumoConfiguration.xsd">

    <input>
        <net-file value="/home/juanpablo/Desktop/FuzzyTLS/sumo_files/osm.net_static.xml"/>
        <route-files value="/home/juanpablo/Desktop/FuzzyTLS/sumo_files/generated_routes_medium.rou.xml"/>
        <additional-files value="/home/juanpablo/Desktop/FuzzyTLS/sumo_files/osm.poly.xml.gz,/home/juanpablo/Desktop/FuzzyTLS/sumo_files/output.add.xml"/>
    </input>

    <output>
        <tripinfo-output value="/home/juanpablo/Desktop/FuzzyTLS/experiments/fuzzy_medium_00_1750561807/tripinfo.xml"/>
        <statistic-output value="/home/juanpablo/Desktop/FuzzyTLS/experiments/fuzzy_medium_00_1750561807/stats.xml"/>
    </output>

    <time>
        <step-length value="1.0"/>
    </time>

    <processing>
        <ignore-route-errors value="true"/>
        <tls.actuated.jam-threshold value="30"/>
    </processing>

    <routing>
        <device.rerouting.adaptation-steps value="18"/>
        <device.rerouting.adaptation-interval value="10"/>
    </routing>

    <report>
        <verbose value="true"/>
        <duration-log.statistics value="true"/>
        <no-step-log value="true"/>
    </report>

    <traci_server>
        <remote-port value="58281"/>
    </traci_server>

    <random_number>
        <seed value="0"/>
    </random_number>

    <gui_only>
        <gui-settings-file value="/home/juanpablo/Desktop/FuzzyTLS/sumo_files/osm.view.xml"/>
    </gui_only>

</sumoConfiguration>
-->

<tripinfos xmlns:xsi="http://www.w3.org/2001/XMLSchema-instance" xsi:noNamespaceSchemaLocation="http://sumo.dlr.de/xsd/tripinfo_file.xsd">
    <tripinfo id="f1.0" depart="0.00" departLane="40668087#1_0" departPos="4.30" departSpeed="0.00" departDelay="0.00" arrival="29.00" arrivalLane="542428845#0_0" arrivalPos="103.93" arrivalSpeed="9.19" duration="29.00" routeLength="217.05" waitingTime="0.00" waitingCount="0" stopTime="0.00" timeLoss="4.98" rerouteNo="0" devices="tripinfo_f1.0 routing_f1.0" vType="car" speedFactor="1.12" vaporized=""/>
    <tripinfo id="f8.0" depart="0.00" departLane="49217102_0" departPos="4.30" departSpeed="0.00" departDelay="0.00" arrival="37.00" arrivalLane="337277951#3_0" arrivalPos="38.80" arrivalSpeed="5.79" duration="37.00" routeLength="204.16" waitingTime="0.00" waitingCount="0" stopTime="0.00" timeLoss="4.52" rerouteNo="1" devices="tripinfo_f8.0 routing_f8.0" vType="car" speedFactor="0.76" vaporized=""/>
    <tripinfo id="f10.0" depart="8.00" departLane="49217102_0" departPos="4.30" departSpeed="0.00" departDelay="8.00" arrival="46.00" arrivalLane="337277973#1_1" arrivalPos="76.89" arrivalSpeed="10.30" duration="38.00" routeLength="299.80" waitingTime="0.00" waitingCount="0" stopTime="0.00" timeLoss="8.49" rerouteNo="1" devices="tripinfo_f10.0 routing_f10.0" vType="car" speedFactor="1.27" vaporized=""/>
    <tripinfo id="f6.0" depart="20.00" departLane="40668087#1_0" departPos="4.30" departSpeed="0.00" departDelay="20.00" arrival="50.00" arrivalLane="337277970#1_0" arrivalPos="79.16" arrivalSpeed="3.87" duration="30.00" routeLength="198.11" waitingTime="0.00" waitingCount="0" stopTime="0.00" timeLoss="9.04" rerouteNo="0" devices="tripinfo_f6.0 routing_f6.0" vType="car" speedFactor="1.16" vaporized=""/>
    <tripinfo id="f9.0" depart="4.00" departLane="49217102_0" departPos="4.30" departSpeed="0.00" departDelay="4.00" arrival="54.00" arrivalLane="1053072563_0" arrivalPos="107.94" arrivalSpeed="8.40" duration="50.00" routeLength="331.95" waitingTime="0.00" waitingCount="0" stopTime="0.00" timeLoss="11.63" rerouteNo="1" devices="tripinfo_f9.0 routing_f9.0" vType="car" speedFactor="1.05" vaporized=""/>
    <tripinfo id="f7.0" depart="24.00" departLane="40668087#1_0" departPos="4.30" departSpeed="0.00" departDelay="24.00" arrival="62.00" arrivalLane="337277951#1_1" arrivalPos="36.28" arrivalSpeed="7.34" duration="38.00" routeLength="245.81" waitingTime="0.00" waitingCount="0" stopTime="0.00" timeLoss="5.79" rerouteNo="1" devices="tripinfo_f7.0 routing_f7.0" vType="car" speedFactor="0.95" vaporized=""/>
    <tripinfo id="f11.0" depart="12.00" departLane="49217102_0" departPos="4.30" departSpeed="0.00" departDelay="12.00" arrival="62.00" arrivalLane="337277984#0_1" arrivalPos="108.85" arrivalSpeed="12.32" duration="50.00" routeLength="425.84" waitingTime="0.00" waitingCount="0" stopTime="0.00" timeLoss="7.25" rerouteNo="1" devices="tripinfo_f11.0 routing_f11.0" vType="car" speedFactor="1.13" vaporized=""/>
    <tripinfo id="f2.0" depart="4.00" departLane="40668087#1_0" departPos="4.30" departSpeed="0.00" departDelay="4.00" arrival="63.00" arrivalLane="337277957#0_0" arrivalPos="105.61" arrivalSpeed="8.50" duration="59.00" routeLength="318.86" waitingTime="10.00" waitingCount="1" stopTime="0.00" timeLoss="22.25" rerouteNo="1" devices="tripinfo_f2.0 routing_f2.0" vType="car" speedFactor="1.05" vaporized=""/>
    <tripinfo id="f14.0" depart="4.00" departLane="42143912#5_0" departPos="4.30" departSpeed="0.00" departDelay="4.00" arrival="63.00" arrivalLane="542428845#0_0" arrivalPos="103.93" arrivalSpeed="7.69" duration="59.00" routeLength="270.22" waitingTime="16.00" waitingCount="1" stopTime="0.00" timeLoss="25.63" rerouteNo="1" devices="tripinfo_f14.0 routing_f14.0" vType="car" speedFactor="0.99" vaporized=""/>
    <tripinfo id="f17.0" depart="0.00" departLane="567060342#0_0" departPos="4.30" departSpeed="0.00" departDelay="0.00" arrival="72.00" arrivalLane="337277984#0_0" arrivalPos="108.85" arrivalSpeed="11.28" duration="72.00" routeLength="321.43" waitingTime="26.00" waitingCount="1" stopTime="0.00" timeLoss="38.12" rerouteNo="1" devices="tripinfo_f17.0 routing_f17.0" vType="car" speedFactor="1.06" vaporized=""/>
    <tripinfo id="f13.0" depart="0.00" departLane="42143912#5_0" departPos="4.30" departSpeed="0.00" departDelay="0.00" arrival="77.00" arrivalLane="337277957#0_0" arrivalPos="105.61" arrivalSpeed="7.75" duration="77.00" routeLength="363.20" waitingTime="19.00" waitingCount="1" stopTime="0.00" timeLoss="29.18" rerouteNo="1" devices="tripinfo_f13.0 routing_f13.0" vType="car" speedFactor="0.93" vaporized=""/>
    <tripinfo id="f3.0" depart="8.00" departLane="40668087#1_0" departPos="4.30" departSpeed="0.00" departDelay="8.00" arrival="81.00" arrivalLane="1053072563_0" arrivalPos="107.94" arrivalSpeed="8.40" duration="73.00" routeLength="423.31" waitingTime="7.00" waitingCount="1" stopTime="0.00" timeLoss="23.45" rerouteNo="1" devices="tripinfo_f3.0 routing_f3.0" vType="car" speedFactor="1.03" vaporized=""/>
    <tripinfo id="f4.0" depart="12.00" departLane="40668087#1_0" departPos="4.30" departSpeed="0.00" departDelay="12.00" arrival="86.00" arrivalLane="337277973#1_0" arrivalPos="76.89" arrivalSpeed="5.74" duration="74.00" routeLength="391.16" waitingTime="4.00" waitingCount="2" stopTime="0.00" timeLoss="26.92" rerouteNo="1" devices="tripinfo_f4.0 routing_f4.0" vType="car" speedFactor="1.02" vaporized=""/>
    <tripinfo id="f15.0" depart="8.00" departLane="42143912#5_0" departPos="4.30" departSpeed="0.00" departDelay="8.00" arrival="90.00" arrivalLane="1053072563_0" arrivalPos="107.94" arrivalSpeed="8.51" duration="82.00" routeLength="467.65" waitingTime="14.00" waitingCount="1" stopTime="0.00" timeLoss="27.22" rerouteNo="1" devices="tripinfo_f15.0 routing_f15.0" vType="car" speedFactor="1.04" vaporized=""/>
    <tripinfo id="f16.0" depart="12.00" departLane="42143912#5_0" departPos="4.30" departSpeed="0.00" departDelay="12.00" arrival="96.00" arrivalLane="337277973#1_1" arrivalPos="76.89" arrivalSpeed="5.10" duration="84.00" routeLength="435.50" waitingTime="11.00" waitingCount="1" stopTime="0.00" timeLoss="33.07" rerouteNo="1" devices="tripinfo_f16.0 routing_f16.0" vType="car" speedFactor="1.04" vaporized=""/>
    <tripinfo id="f5.0" depart="16.00" departLane="40668087#1_0" departPos="4.30" departSpeed="0.00" departDelay="16.00" arrival="106.00" arrivalLane="337277984#0_0" arrivalPos="108.85" arrivalSpeed="9.38" duration="90.00" routeLength="517.20" waitingTime="1.00" waitingCount="1" stopTime="0.00" timeLoss="23.02" rerouteNo="1" devices="tripinfo_f5.0 routing_f5.0" vType="car" speedFactor="0.88" vaporized=""/>
    <tripinfo id="f18.0" depart="4.00" departLane="567060342#0_0" departPos="4.30" departSpeed="0.00" departDelay="4.00" arrival="106.00" arrivalLane="542428845#0_0" arrivalPos="103.93" arrivalSpeed="5.95" duration="102.00" routeLength="420.30" waitingTime="20.00" waitingCount="1" stopTime="0.00" timeLoss="31.68" rerouteNo="1" devices="tripinfo_f18.0 routing_f18.0" vType="car" speedFactor="0.72" vaporized=""/>
    <tripinfo id="f12.0" depart="16.00" departLane="49217102_0" departPos="4.30" departSpeed="0.00" departDelay="16.00" arrival="140.00" arrivalLane="542428845#0_0" arrivalPos="103.93" arrivalSpeed="7.80" duration="124.00" routeLength="524.71" waitingTime="31.00" waitingCount="3" stopTime="0.00" timeLoss="56.59" rerouteNo="1" devices="tripinfo_f12.0 routing_f12.0" vType="car" speedFactor="0.95" vaporized=""/>
    <tripinfo id="f19.0" depart="8.00" departLane="567060342#0_0" departPos="4.30" departSpeed="0.00" departDelay="8.00" arrival="149.00" arrivalLane="337277957#0_1" arrivalPos="105.61" arrivalSpeed="9.10" duration="141.00" routeLength="513.28" waitingTime="50.00" waitingCount="3" stopTime="0.00" timeLoss="84.79" rerouteNo="1" devices="tripinfo_f19.0 routing_f19.0" vType="car" speedFactor="1.11" vaporized=""/>
    <tripinfo id="f8.1" depart="139.00" departLane="49217102_0" departPos="4.30" departSpeed="0.00" departDelay="0.54" arrival="169.00" arrivalLane="337277951#3_0" arrivalPos="38.80" arrivalSpeed="7.87" duration="30.00" routeLength="204.16" waitingTime="0.00" waitingCount="0" stopTime="0.00" timeLoss="4.84" rerouteNo="1" devices="tripinfo_f8.1 routing_f8.1" vType="car" speedFactor="0.98" vaporized=""/>
    <tripinfo id="f13.1" depart="139.00" departLane="42143912#5_0" departPos="4.30" departSpeed="0.00" departDelay="0.54" arrival="190.00" arrivalLane="337277957#0_1" arrivalPos="105.61" arrivalSpeed="9.51" duration="51.00" routeLength="363.20" waitingTime="0.00" waitingCount="0" stopTime="0.00" timeLoss="13.86" rerouteNo="1" devices="tripinfo_f13.1 routing_f13.1" vType="car" speedFactor="1.19" vaporized=""/>
    <tripinfo id="f17.1" depart="139.00" departLane="567060342#0_0" departPos="4.30" departSpeed="0.00" departDelay="0.54" arrival="190.00" arrivalLane="337277984#0_0" arrivalPos="108.85" arrivalSpeed="12.00" duration="51.00" routeLength="321.43" waitingTime="8.00" waitingCount="1" stopTime="0.00" timeLoss="19.45" rerouteNo="1" devices="tripinfo_f17.1 routing_f17.1" vType="car" speedFactor="1.13" vaporized=""/>
    <tripinfo id="f14.1" depart="143.00" departLane="42143912#5_0" departPos="4.30" departSpeed="0.00" departDelay="4.54" arrival="191.00" arrivalLane="542428845#0_0" arrivalPos="103.93" arrivalSpeed="6.72" duration="48.00" routeLength="270.22" waitingTime="0.00" waitingCount="0" stopTime="0.00" timeLoss="8.85" rerouteNo="1" devices="tripinfo_f14.1 routing_f14.1" vType="car" speedFactor="0.84" vaporized=""/>
    <tripinfo id="f1.1" depart="139.00" departLane="40668087#1_0" departPos="4.30" departSpeed="0.00" departDelay="0.54" arrival="196.00" arrivalLane="542428845#0_0" arrivalPos="103.93" arrivalSpeed="7.25" duration="57.00" routeLength="217.05" waitingTime="17.00" waitingCount="1" stopTime="0.00" timeLoss="29.02" rerouteNo="0" devices="tripinfo_f1.1 routing_f1.1" vType="car" speedFactor="0.94" vaporized=""/>
    <tripinfo id="f9.1" depart="143.00" departLane="49217102_0" departPos="4.30" departSpeed="0.00" departDelay="4.54" arrival="203.00" arrivalLane="1053072563_0" arrivalPos="107.94" arrivalSpeed="7.97" duration="60.00" routeLength="331.95" waitingTime="8.00" waitingCount="1" stopTime="0.00" timeLoss="20.28" rerouteNo="1" devices="tripinfo_f9.1 routing_f9.1" vType="car" speedFactor="1.02" vaporized=""/>
    <tripinfo id="f16.1" depart="151.00" departLane="42143912#5_0" departPos="4.30" departSpeed="0.00" departDelay="12.54" arrival="211.00" arrivalLane="337277973#1_1" arrivalPos="76.89" arrivalSpeed="8.02" duration="60.00" routeLength="435.50" waitingTime="0.00" waitingCount="0" stopTime="0.00" timeLoss="8.32" rerouteNo="1" devices="tripinfo_f16.1 routing_f16.1" vType="car" speedFactor="1.03" vaporized=""/>
    <tripinfo id="f6.1" depart="160.00" departLane="40668087#1_0" departPos="4.30" departSpeed="0.00" departDelay="21.54" arrival="214.00" arrivalLane="337277970#1_0" arrivalPos="79.16" arrivalSpeed="3.56" duration="54.00" routeLength="198.11" waitingTime="9.00" waitingCount="2" stopTime="0.00" timeLoss="28.58" rerouteNo="0" devices="tripinfo_f6.1 routing_f6.1" vType="car" speedFactor="0.94" vaporized=""/>
    <tripinfo id="f15.1" depart="147.00" departLane="42143912#5_0" departPos="4.30" departSpeed="0.00" departDelay="8.54" arrival="214.00" arrivalLane="1053072563_0" arrivalPos="107.94" arrivalSpeed="8.11" duration="67.00" routeLength="467.65" waitingTime="0.00" waitingCount="0" stopTime="0.00" timeLoss="8.83" rerouteNo="1" devices="tripinfo_f15.1 routing_f15.1" vType="car" speedFactor="0.99" vaporized=""/>
    <tripinfo id="f18.1" depart="143.00" departLane="567060342#0_0" departPos="4.30" departSpeed="0.00" departDelay="4.54" arrival="221.00" arrivalLane="542428845#0_0" arrivalPos="103.93" arrivalSpeed="8.29" duration="78.00" routeLength="420.30" waitingTime="10.00" waitingCount="2" stopTime="0.00" timeLoss="29.55" rerouteNo="1" devices="tripinfo_f18.1 routing_f18.1" vType="car" speedFactor="1.05" vaporized=""/>
    <tripinfo id="f2.1" depart="143.00" departLane="40668087#1_0" departPos="4.30" departSpeed="0.00" departDelay="4.54" arrival="227.00" arrivalLane="337277957#0_0" arrivalPos="105.61" arrivalSpeed="9.27" duration="84.00" routeLength="318.86" waitingTime="30.00" waitingCount="2" stopTime="0.00" timeLoss="51.63" rerouteNo="1" devices="tripinfo_f2.1 routing_f2.1" vType="car" speedFactor="1.18" vaporized=""/>
    <tripinfo id="f7.1" depart="164.00" departLane="40668087#1_0" departPos="4.30" departSpeed="0.00" departDelay="25.54" arrival="228.00" arrivalLane="337277951#1_1" arrivalPos="36.28" arrivalSpeed="7.94" duration="64.00" routeLength="245.81" waitingTime="9.00" waitingCount="2" stopTime="0.00" timeLoss="35.82" rerouteNo="1" devices="tripinfo_f7.1 routing_f7.1" vType="car" speedFactor="1.09" vaporized=""/>
    <tripinfo id="f19.1" depart="147.00" departLane="567060342#0_0" departPos="4.30" departSpeed="0.00" departDelay="8.54" arrival="239.00" arrivalLane="337277957#0_0" arrivalPos="105.61" arrivalSpeed="7.18" duration="92.00" routeLength="513.28" waitingTime="2.00" waitingCount="2" stopTime="0.00" timeLoss="21.70" rerouteNo="1" devices="tripinfo_f19.1 routing_f19.1" vType="car" speedFactor="0.88" vaporized=""/>
    <tripinfo id="f10.1" depart="147.00" departLane="49217102_0" departPos="4.30" departSpeed="0.00" departDelay="8.54" arrival="243.00" arrivalLane="337277973#1_1" arrivalPos="76.89" arrivalSpeed="8.45" duration="96.00" routeLength="299.80" waitingTime="44.00" waitingCount="2" stopTime="0.00" timeLoss="60.29" rerouteNo="1" devices="tripinfo_f10.1 routing_f10.1" vType="car" speedFactor="1.03" vaporized=""/>
    <tripinfo id="f3.1" depart="148.00" departLane="40668087#1_0" departPos="4.30" departSpeed="0.00" departDelay="9.54" arrival="246.00" arrivalLane="1053072563_0" arrivalPos="107.94" arrivalSpeed="7.19" duration="98.00" routeLength="423.31" waitingTime="23.00" waitingCount="2" stopTime="0.00" timeLoss="39.56" rerouteNo="1" devices="tripinfo_f3.1 routing_f3.1" vType="car" speedFactor="0.89" vaporized=""/>
    <tripinfo id="f4.1" depart="152.00" departLane="40668087#1_0" departPos="4.30" departSpeed="0.00" departDelay="13.54" arrival="257.00" arrivalLane="337277973#1_1" arrivalPos="76.89" arrivalSpeed="3.15" duration="105.00" routeLength="391.16" waitingTime="24.00" waitingCount="3" stopTime="0.00" timeLoss="57.58" rerouteNo="1" devices="tripinfo_f4.1 routing_f4.1" vType="car" speedFactor="1.01" vaporized=""/>
    <tripinfo id="f11.1" depart="151.00" departLane="49217102_0" departPos="4.30" departSpeed="0.00" departDelay="12.54" arrival="269.00" arrivalLane="337277984#0_0" arrivalPos="108.85" arrivalSpeed="11.70" duration="118.00" routeLength="425.84" waitingTime="47.00" waitingCount="3" stopTime="0.00" timeLoss="72.74" rerouteNo="1" devices="tripinfo_f11.1 routing_f11.1" vType="car" speedFactor="1.05" vaporized=""/>
    <tripinfo id="f5.1" depart="156.00" departLane="40668087#1_0" departPos="4.30" departSpeed="0.00" departDelay="17.54" arrival="276.00" arrivalLane="337277984#0_0" arrivalPos="108.85" arrivalSpeed="7.93" duration="120.00" routeLength="517.20" waitingTime="12.00" waitingCount="2" stopTime="0.00" timeLoss="41.36" rerouteNo="1" devices="tripinfo_f5.1 routing_f5.1" vType="car" speedFactor="0.75" vaporized=""/>
    <tripinfo id="f12.1" depart="155.00" departLane="49217102_0" departPos="4.30" departSpeed="0.00" departDelay="16.54" arrival="295.00" arrivalLane="542428845#0_0" arrivalPos="103.93" arrivalSpeed="9.45" duration="140.00" routeLength="524.71" waitingTime="45.00" waitingCount="4" stopTime="0.00" timeLoss="84.91" rerouteNo="1" devices="tripinfo_f12.1 routing_f12.1" vType="car" speedFactor="1.15" vaporized=""/>
    <tripinfo id="f1.2" depart="277.00" departLane="40668087#1_0" departPos="4.30" departSpeed="0.00" departDelay="0.08" arrival="317.00" arrivalLane="542428845#0_0" arrivalPos="103.93" arrivalSpeed="7.46" duration="40.00" routeLength="217.05" waitingTime="1.00" waitingCount="1" stopTime="0.00" timeLoss="11.59" rerouteNo="0" devices="tripinfo_f1.2 routing_f1.2" vType="car" speedFactor="0.94" vaporized=""/>
    <tripinfo id="f17.2" depart="277.00" departLane="567060342#0_0" departPos="4.30" departSpeed="0.00" departDelay="0.08" arrival="320.00" arrivalLane="337277984#0_0" arrivalPos="108.85" arrivalSpeed="9.80" duration="43.00" routeLength="321.43" waitingTime="0.00" waitingCount="0" stopTime="0.00" timeLoss="5.13" rerouteNo="1" devices="tripinfo_f17.2 routing_f17.2" vType="car" speedFactor="0.92" vaporized=""/>
    <tripinfo id="f8.2" depart="277.00" departLane="49217102_0" departPos="4.30" departSpeed="0.00" departDelay="0.08" arrival="332.00" arrivalLane="337277951#3_0" arrivalPos="38.80" arrivalSpeed="9.32" duration="55.00" routeLength="204.16" waitingTime="22.00" waitingCount="1" stopTime="0.00" timeLoss="34.25" rerouteNo="1" devices="tripinfo_f8.2 routing_f8.2" vType="car" speedFactor="1.18" vaporized=""/>
    <tripinfo id="f14.2" depart="281.00" departLane="42143912#5_0" departPos="4.30" departSpeed="0.00" departDelay="4.08" arrival="341.00" arrivalLane="542428845#0_0" arrivalPos="103.93" arrivalSpeed="9.08" duration="60.00" routeLength="270.22" waitingTime="17.00" waitingCount="1" stopTime="0.00" timeLoss="30.38" rerouteNo="1" devices="tripinfo_f14.2 routing_f14.2" vType="car" speedFactor="1.11" vaporized=""/>
    <tripinfo id="f18.2" depart="281.00" departLane="567060342#0_0" departPos="4.30" departSpeed="0.00" departDelay="4.08" arrival="343.00" arrivalLane="542428845#0_0" arrivalPos="103.93" arrivalSpeed="9.03" duration="62.00" routeLength="420.30" waitingTime="1.00" waitingCount="1" stopTime="0.00" timeLoss="15.59" rerouteNo="1" devices="tripinfo_f18.2 routing_f18.2" vType="car" speedFactor="1.09" vaporized=""/>
    <tripinfo id="f6.2" depart="297.00" departLane="40668087#1_0" departPos="4.30" departSpeed="0.00" departDelay="20.08" arrival="347.00" arrivalLane="337277970#1_0" arrivalPos="79.16" arrivalSpeed="3.85" duration="50.00" routeLength="198.11" waitingTime="14.00" waitingCount="1" stopTime="0.00" timeLoss="23.96" rerouteNo="0" devices="tripinfo_f6.2 routing_f6.2" vType="car" speedFactor="0.93" vaporized=""/>
    <tripinfo id="f7.2" depart="301.00" departLane="40668087#1_0" departPos="4.30" departSpeed="0.00" departDelay="24.08" arrival="359.00" arrivalLane="337277951#1_1" arrivalPos="36.28" arrivalSpeed="6.82" duration="58.00" routeLength="245.81" waitingTime="13.00" waitingCount="1" stopTime="0.00" timeLoss="23.58" rerouteNo="1" devices="tripinfo_f7.2 routing_f7.2" vType="car" speedFactor="0.88" vaporized=""/>
    <tripinfo id="f2.2" depart="281.00" departLane="40668087#1_0" departPos="4.30" departSpeed="0.00" departDelay="4.08" arrival="363.00" arrivalLane="337277957#0_0" arrivalPos="105.61" arrivalSpeed="6.61" duration="82.00" routeLength="318.86" waitingTime="23.00" waitingCount="1" stopTime="0.00" timeLoss="35.78" rerouteNo="1" devices="tripinfo_f2.2 routing_f2.2" vType="car" speedFactor="0.84" vaporized=""/>
    <tripinfo id="f13.2" depart="277.00" departLane="42143912#5_0" departPos="4.30" departSpeed="0.00" departDelay="0.08" arrival="366.00" arrivalLane="337277957#0_0" arrivalPos="105.61" arrivalSpeed="7.46" duration="89.00" routeLength="363.20" waitingTime="20.00" waitingCount="2" stopTime="0.00" timeLoss="41.71" rerouteNo="1" devices="tripinfo_f13.2 routing_f13.2" vType="car" speedFactor="0.93" vaporized=""/>
    <tripinfo id="f9.2" depart="281.00" departLane="49217102_0" departPos="4.30" departSpeed="0.00" departDelay="4.08" arrival="375.00" arrivalLane="1053072563_0" arrivalPos="107.94" arrivalSpeed="6.99" duration="94.00" routeLength="331.95" waitingTime="29.00" waitingCount="2" stopTime="0.00" timeLoss="46.53" rerouteNo="1" devices="tripinfo_f9.2 routing_f9.2" vType="car" speedFactor="0.85" vaporized=""/>
    <tripinfo id="f3.2" depart="285.00" departLane="40668087#1_0" departPos="4.30" departSpeed="0.00" departDelay="8.08" arrival="377.00" arrivalLane="1053072563_0" arrivalPos="107.94" arrivalSpeed="7.04" duration="92.00" routeLength="423.31" waitingTime="21.00" waitingCount="1" stopTime="0.00" timeLoss="34.26" rerouteNo="1" devices="tripinfo_f3.2 routing_f3.2" vType="car" speedFactor="0.89" vaporized=""/>
    <tripinfo id="f10.2" depart="285.00" departLane="49217102_0" departPos="4.30" departSpeed="0.00" departDelay="8.08" arrival="377.00" arrivalLane="337277973#1_0" arrivalPos="76.89" arrivalSpeed="3.94" duration="92.00" routeLength="299.80" waitingTime="23.00" waitingCount="3" stopTime="0.00" timeLoss="43.37" rerouteNo="1" devices="tripinfo_f10.2 routing_f10.2" vType="car" speedFactor="0.75" vaporized=""/>
    <tripinfo id="f4.2" depart="289.00" departLane="40668087#1_0" departPos="4.30" departSpeed="0.00" departDelay="12.08" arrival="380.00" arrivalLane="337277973#1_1" arrivalPos="76.89" arrivalSpeed="4.79" duration="91.00" routeLength="391.16" waitingTime="20.00" waitingCount="1" stopTime="0.00" timeLoss="43.78" rerouteNo="1" devices="tripinfo_f4.2 routing_f4.2" vType="car" speedFactor="1.01" vaporized=""/>
    <tripinfo id="f15.2" depart="285.00" departLane="42143912#5_0" departPos="4.30" departSpeed="0.00" departDelay="8.08" arrival="384.00" arrivalLane="1053072563_0" arrivalPos="107.94" arrivalSpeed="7.35" duration="99.00" routeLength="467.65" waitingTime="20.00" waitingCount="2" stopTime="0.00" timeLoss="39.09" rerouteNo="1" devices="tripinfo_f15.2 routing_f15.2" vType="car" speedFactor="0.95" vaporized=""/>
    <tripinfo id="f16.2" depart="289.00" departLane="42143912#5_0" departPos="4.30" departSpeed="0.00" departDelay="12.08" arrival="385.00" arrivalLane="337277973#1_1" arrivalPos="76.89" arrivalSpeed="7.15" duration="96.00" routeLength="435.50" waitingTime="17.00" waitingCount="1" stopTime="0.00" timeLoss="35.83" rerouteNo="1" devices="tripinfo_f16.2 routing_f16.2" vType="car" speedFactor="0.88" vaporized=""/>
    <tripinfo id="f11.2" depart="289.00" departLane="49217102_0" departPos="4.30" departSpeed="0.00" departDelay="12.08" arrival="387.00" arrivalLane="337277984#0_0" arrivalPos="108.85" arrivalSpeed="9.28" duration="98.00" routeLength="425.84" waitingTime="21.00" waitingCount="2" stopTime="0.00" timeLoss="42.90" rerouteNo="1" devices="tripinfo_f11.2 routing_f11.2" vType="car" speedFactor="0.86" vaporized=""/>
    <tripinfo id="f5.2" depart="293.00" departLane="40668087#1_0" departPos="4.30" departSpeed="0.00" departDelay="16.08" arrival="395.00" arrivalLane="337277984#0_0" arrivalPos="108.85" arrivalSpeed="9.76" duration="102.00" routeLength="517.20" waitingTime="19.00" waitingCount="1" stopTime="0.00" timeLoss="37.02" rerouteNo="1" devices="tripinfo_f5.2 routing_f5.2" vType="car" speedFactor="0.91" vaporized=""/>
    <tripinfo id="f12.2" depart="293.00" departLane="49217102_0" departPos="4.30" departSpeed="0.00" departDelay="16.08" arrival="424.00" arrivalLane="542428845#0_0" arrivalPos="103.93" arrivalSpeed="7.23" duration="131.00" routeLength="524.71" waitingTime="29.00" waitingCount="3" stopTime="0.00" timeLoss="60.58" rerouteNo="1" devices="tripinfo_f12.2 routing_f12.2" vType="car" speedFactor="0.90" vaporized=""/>
    <tripinfo id="f1.3" depart="416.00" departLane="40668087#1_0" departPos="4.30" departSpeed="0.00" departDelay="0.61" arrival="444.00" arrivalLane="542428845#0_0" arrivalPos="103.93" arrivalSpeed="9.90" duration="28.00" routeLength="217.05" waitingTime="0.00" waitingCount="0" stopTime="0.00" timeLoss="5.63" rerouteNo="0" devices="tripinfo_f1.3 routing_f1.3" vType="car" speedFactor="1.22" vaporized=""/>
    <tripinfo id="f19.2" depart="285.00" departLane="567060342#0_0" departPos="4.30" departSpeed="0.00" departDelay="8.08" arrival="447.00" arrivalLane="337277957#0_0" arrivalPos="105.61" arrivalSpeed="5.57" duration="162.00" routeLength="513.28" waitingTime="52.00" waitingCount="3" stopTime="0.00" timeLoss="71.75" rerouteNo="1" devices="tripinfo_f19.2 routing_f19.2" vType="car" speedFactor="0.68" vaporized=""/>
    <tripinfo id="f8.3" depart="416.00" departLane="49217102_0" departPos="4.30" departSpeed="0.00" departDelay="0.61" arrival="459.00" arrivalLane="337277951#3_0" arrivalPos="38.80" arrivalSpeed="9.48" duration="43.00" routeLength="204.16" waitingTime="8.00" waitingCount="1" stopTime="0.00" timeLoss="21.38" rerouteNo="1" devices="tripinfo_f8.3 routing_f8.3" vType="car" speedFactor="1.18" vaporized=""/>
    <tripinfo id="f14.3" depart="420.00" departLane="42143912#5_0" departPos="4.30" departSpeed="0.00" departDelay="4.61" arrival="469.00" arrivalLane="542428845#0_0" arrivalPos="103.93" arrivalSpeed="8.63" duration="49.00" routeLength="270.22" waitingTime="7.00" waitingCount="1" stopTime="0.00" timeLoss="17.48" rerouteNo="1" devices="tripinfo_f14.3 routing_f14.3" vType="car" speedFactor="1.05" vaporized=""/>
    <tripinfo id="f6.3" depart="436.00" departLane="40668087#1_0" departPos="4.30" departSpeed="0.00" departDelay="20.61" arrival="484.00" arrivalLane="337277970#1_0" arrivalPos="79.16" arrivalSpeed="7.56" duration="48.00" routeLength="198.11" waitingTime="11.00" waitingCount="1" stopTime="0.00" timeLoss="23.15" rerouteNo="0" devices="tripinfo_f6.3 routing_f6.3" vType="car" speedFactor="0.96" vaporized=""/>
    <tripinfo id="f13.3" depart="416.00" departLane="42143912#5_0" departPos="4.30" departSpeed="0.00" departDelay="0.61" arrival="487.00" arrivalLane="337277957#0_1" arrivalPos="105.61" arrivalSpeed="8.09" duration="71.00" routeLength="363.20" waitingTime="12.00" waitingCount="2" stopTime="0.00" timeLoss="28.36" rerouteNo="1" devices="tripinfo_f13.3 routing_f13.3" vType="car" speedFactor="1.03" vaporized=""/>
    <tripinfo id="f2.3" depart="420.00" departLane="40668087#1_0" departPos="4.30" departSpeed="0.00" departDelay="4.61" arrival="489.00" arrivalLane="337277957#0_0" arrivalPos="105.61" arrivalSpeed="7.74" duration="69.00" routeLength="318.86" waitingTime="15.00" waitingCount="1" stopTime="0.00" timeLoss="27.74" rerouteNo="1" devices="tripinfo_f2.3 routing_f2.3" vType="car" speedFactor="0.95" vaporized=""/>
    <tripinfo id="f7.3" depart="440.00" departLane="40668087#1_0" departPos="4.30" departSpeed="0.00" departDelay="24.61" arrival="494.00" arrivalLane="337277951#1_1" arrivalPos="36.28" arrivalSpeed="7.31" duration="54.00" routeLength="245.81" waitingTime="10.00" waitingCount="1" stopTime="0.00" timeLoss="23.57" rerouteNo="1" devices="tripinfo_f7.3 routing_f7.3" vType="car" speedFactor="0.98" vaporized=""/>
    <tripinfo id="f9.3" depart="420.00" departLane="49217102_0" departPos="4.30" departSpeed="0.00" departDelay="4.61" arrival="498.00" arrivalLane="1053072563_0" arrivalPos="107.94" arrivalSpeed="8.46" duration="78.00" routeLength="331.95" waitingTime="20.00" waitingCount="2" stopTime="0.00" timeLoss="38.82" rerouteNo="1" devices="tripinfo_f9.3 routing_f9.3" vType="car" speedFactor="1.02" vaporized=""/>
    <tripinfo id="f10.3" depart="424.00" departLane="49217102_0" departPos="4.30" departSpeed="0.00" departDelay="8.61" arrival="500.00" arrivalLane="337277973#1_0" arrivalPos="76.89" arrivalSpeed="4.43" duration="76.00" routeLength="299.80" waitingTime="14.00" waitingCount="2" stopTime="0.00" timeLoss="32.06" rerouteNo="1" devices="tripinfo_f10.3 routing_f10.3" vType="car" speedFactor="0.83" vaporized=""/>
    <tripinfo id="f15.3" depart="424.00" departLane="42143912#5_0" departPos="4.30" departSpeed="0.00" departDelay="8.61" arrival="505.00" arrivalLane="1053072563_0" arrivalPos="107.94" arrivalSpeed="7.38" duration="81.00" routeLength="467.65" waitingTime="4.00" waitingCount="1" stopTime="0.00" timeLoss="18.46" rerouteNo="1" devices="tripinfo_f15.3 routing_f15.3" vType="car" speedFactor="0.91" vaporized=""/>
    <tripinfo id="f3.3" depart="424.00" departLane="40668087#1_0" departPos="4.30" departSpeed="0.00" departDelay="8.61" arrival="510.00" arrivalLane="1053072563_0" arrivalPos="107.94" arrivalSpeed="7.24" duration="86.00" routeLength="423.31" waitingTime="18.00" waitingCount="1" stopTime="0.00" timeLoss="29.47" rerouteNo="1" devices="tripinfo_f3.3 routing_f3.3" vType="car" speedFactor="0.91" vaporized=""/>