<?xml version="1.0" encoding="UTF-8"?>

<!-- generated on 2025-06-21 20:06:29 by Eclipse SUMO sumo Version v1_22_0+1225-450f2e124d0
<sumoConfiguration xmlns:xsi="http://www.w3.org/2001/XMLSchema-instance" xsi:noNamespaceSchemaLocation="http://sumo.dlr.de/xsd/sumoConfiguration.xsd">

    <input>
        <net-file value="/home/juanpablo/Desktop/FuzzyTLS/sumo_files/osm.net_static.xml"/>
        <route-files value="/home/juanpablo/Desktop/FuzzyTLS/sumo_files/generated_routes_medium.rou.xml"/>
        <additional-files value="/home/juanpablo/Desktop/FuzzyTLS/sumo_files/osm.poly.xml.gz,/home/juanpablo/Desktop/FuzzyTLS/sumo_files/output.add.xml"/>
    </input>

    <output>
        <tripinfo-output value="/home/juanpablo/Desktop/FuzzyTLS/experiments/fuzzy_medium_00_1750554388/tripinfo.xml"/>
        <statistic-output value="/home/juanpablo/Desktop/FuzzyTLS/experiments/fuzzy_medium_00_1750554388/stats.xml"/>
    </output>

    <time>
        <step-length value="1.0"/>
    </time>

    <processing>
        <ignore-route-errors value="true"/>
        <tls.actuated.jam-threshold value="30"/>
    </processing>

    <routing>
        <device.rerouting.adaptation-steps value="18"/>
        <device.rerouting.adaptation-interval value="10"/>
    </routing>

    <report>
        <verbose value="true"/>
        <duration-log.statistics value="true"/>
        <no-step-log value="true"/>
    </report>

    <traci_server>
        <remote-port value="55803"/>
    </traci_server>

    <random_number>
        <seed value="0"/>
    </random_number>

    <gui_only>
        <gui-settings-file value="/home/juanpablo/Desktop/FuzzyTLS/sumo_files/osm.view.xml"/>
    </gui_only>

</sumoConfiguration>
-->

<tripinfos xmlns:xsi="http://www.w3.org/2001/XMLSchema-instance" xsi:noNamespaceSchemaLocation="http://sumo.dlr.de/xsd/tripinfo_file.xsd">
    <tripinfo id="f1.0" depart="0.00" departLane="40668087#1_0" departPos="4.30" departSpeed="0.00" departDelay="0.00" arrival="29.00" arrivalLane="542428845#0_0" arrivalPos="103.93" arrivalSpeed="9.19" duration="29.00" routeLength="217.05" waitingTime="0.00" waitingCount="0" stopTime="0.00" timeLoss="4.98" rerouteNo="0" devices="tripinfo_f1.0 routing_f1.0" vType="car" speedFactor="1.12" vaporized=""/>
    <tripinfo id="f8.0" depart="0.00" departLane="49217102_0" departPos="4.30" departSpeed="0.00" departDelay="0.00" arrival="37.00" arrivalLane="337277951#3_0" arrivalPos="38.80" arrivalSpeed="5.79" duration="37.00" routeLength="204.16" waitingTime="0.00" waitingCount="0" stopTime="0.00" timeLoss="4.52" rerouteNo="1" devices="tripinfo_f8.0 routing_f8.0" vType="car" speedFactor="0.76" vaporized=""/>
    <tripinfo id="f10.0" depart="8.00" departLane="49217102_0" departPos="4.30" departSpeed="0.00" departDelay="8.00" arrival="46.00" arrivalLane="337277973#1_1" arrivalPos="76.89" arrivalSpeed="10.30" duration="38.00" routeLength="299.80" waitingTime="0.00" waitingCount="0" stopTime="0.00" timeLoss="8.49" rerouteNo="1" devices="tripinfo_f10.0 routing_f10.0" vType="car" speedFactor="1.27" vaporized=""/>
    <tripinfo id="f6.0" depart="20.00" departLane="40668087#1_0" departPos="4.30" departSpeed="0.00" departDelay="20.00" arrival="50.00" arrivalLane="337277970#1_0" arrivalPos="79.16" arrivalSpeed="3.87" duration="30.00" routeLength="198.11" waitingTime="0.00" waitingCount="0" stopTime="0.00" timeLoss="9.04" rerouteNo="0" devices="tripinfo_f6.0 routing_f6.0" vType="car" speedFactor="1.16" vaporized=""/>
    <tripinfo id="f9.0" depart="4.00" departLane="49217102_0" departPos="4.30" departSpeed="0.00" departDelay="4.00" arrival="54.00" arrivalLane="1053072563_0" arrivalPos="107.94" arrivalSpeed="8.40" duration="50.00" routeLength="331.95" waitingTime="0.00" waitingCount="0" stopTime="0.00" timeLoss="11.63" rerouteNo="1" devices="tripinfo_f9.0 routing_f9.0" vType="car" speedFactor="1.05" vaporized=""/>
    <tripinfo id="f7.0" depart="24.00" departLane="40668087#1_0" departPos="4.30" departSpeed="0.00" departDelay="24.00" arrival="62.00" arrivalLane="337277951#1_1" arrivalPos="36.28" arrivalSpeed="7.34" duration="38.00" routeLength="245.81" waitingTime="0.00" waitingCount="0" stopTime="0.00" timeLoss="5.79" rerouteNo="1" devices="tripinfo_f7.0 routing_f7.0" vType="car" speedFactor="0.95" vaporized=""/>
    <tripinfo id="f11.0" depart="12.00" departLane="49217102_0" departPos="4.30" departSpeed="0.00" departDelay="12.00" arrival="62.00" arrivalLane="337277984#0_1" arrivalPos="108.85" arrivalSpeed="12.32" duration="50.00" routeLength="425.84" waitingTime="0.00" waitingCount="0" stopTime="0.00" timeLoss="7.25" rerouteNo="1" devices="tripinfo_f11.0 routing_f11.0" vType="car" speedFactor="1.13" vaporized=""/>
    <tripinfo id="f2.0" depart="4.00" departLane="40668087#1_0" departPos="4.30" departSpeed="0.00" departDelay="4.00" arrival="63.00" arrivalLane="337277957#0_0" arrivalPos="105.61" arrivalSpeed="8.50" duration="59.00" routeLength="318.86" waitingTime="10.00" waitingCount="1" stopTime="0.00" timeLoss="22.25" rerouteNo="1" devices="tripinfo_f2.0 routing_f2.0" vType="car" speedFactor="1.05" vaporized=""/>
    <tripinfo id="f14.0" depart="4.00" departLane="42143912#5_0" departPos="4.30" departSpeed="0.00" departDelay="4.00" arrival="63.00" arrivalLane="542428845#0_0" arrivalPos="103.93" arrivalSpeed="7.69" duration="59.00" routeLength="270.22" waitingTime="16.00" waitingCount="1" stopTime="0.00" timeLoss="25.63" rerouteNo="1" devices="tripinfo_f14.0 routing_f14.0" vType="car" speedFactor="0.99" vaporized=""/>
    <tripinfo id="f17.0" depart="0.00" departLane="567060342#0_0" departPos="4.30" departSpeed="0.00" departDelay="0.00" arrival="72.00" arrivalLane="337277984#0_0" arrivalPos="108.85" arrivalSpeed="11.28" duration="72.00" routeLength="321.43" waitingTime="26.00" waitingCount="1" stopTime="0.00" timeLoss="38.12" rerouteNo="1" devices="tripinfo_f17.0 routing_f17.0" vType="car" speedFactor="1.06" vaporized=""/>
    <tripinfo id="f13.0" depart="0.00" departLane="42143912#5_0" departPos="4.30" departSpeed="0.00" departDelay="0.00" arrival="77.00" arrivalLane="337277957#0_0" arrivalPos="105.61" arrivalSpeed="7.75" duration="77.00" routeLength="363.20" waitingTime="19.00" waitingCount="1" stopTime="0.00" timeLoss="29.18" rerouteNo="1" devices="tripinfo_f13.0 routing_f13.0" vType="car" speedFactor="0.93" vaporized=""/>
    <tripinfo id="f18.0" depart="4.00" departLane="567060342#0_0" departPos="4.30" departSpeed="0.00" departDelay="4.00" arrival="106.00" arrivalLane="542428845#0_0" arrivalPos="103.93" arrivalSpeed="6.03" duration="102.00" routeLength="420.30" waitingTime="20.00" waitingCount="1" stopTime="0.00" timeLoss="31.61" rerouteNo="1" devices="tripinfo_f18.0 routing_f18.0" vType="car" speedFactor="0.72" vaporized=""/>
    <tripinfo id="f3.0" depart="8.00" departLane="40668087#1_0" departPos="4.30" departSpeed="0.00" departDelay="8.00" arrival="108.00" arrivalLane="1053072563_0" arrivalPos="107.94" arrivalSpeed="8.56" duration="100.00" routeLength="423.31" waitingTime="33.00" waitingCount="2" stopTime="0.00" timeLoss="50.26" rerouteNo="1" devices="tripinfo_f3.0 routing_f3.0" vType="car" speedFactor="1.03" vaporized=""/>
    <tripinfo id="f15.0" depart="8.00" departLane="42143912#5_0" departPos="4.30" departSpeed="0.00" departDelay="8.00" arrival="111.00" arrivalLane="1053072563_0" arrivalPos="107.94" arrivalSpeed="8.22" duration="103.00" routeLength="467.65" waitingTime="29.00" waitingCount="2" stopTime="0.00" timeLoss="47.86" rerouteNo="1" devices="tripinfo_f15.0 routing_f15.0" vType="car" speedFactor="1.04" vaporized=""/>
    <tripinfo id="f4.0" depart="12.00" departLane="40668087#1_0" departPos="4.30" departSpeed="0.00" departDelay="12.00" arrival="140.00" arrivalLane="337277973#1_0" arrivalPos="76.89" arrivalSpeed="4.23" duration="128.00" routeLength="391.16" waitingTime="57.00" waitingCount="3" stopTime="0.00" timeLoss="80.68" rerouteNo="1" devices="tripinfo_f4.0 routing_f4.0" vType="car" speedFactor="1.02" vaporized=""/>
    <tripinfo id="f16.0" depart="12.00" departLane="42143912#5_0" departPos="4.30" departSpeed="0.00" departDelay="12.00" arrival="140.00" arrivalLane="337277973#1_1" arrivalPos="76.89" arrivalSpeed="4.18" duration="128.00" routeLength="435.50" waitingTime="43.00" waitingCount="4" stopTime="0.00" timeLoss="76.94" rerouteNo="1" devices="tripinfo_f16.0 routing_f16.0" vType="car" speedFactor="1.04" vaporized=""/>
    <tripinfo id="f5.0" depart="16.00" departLane="40668087#1_0" departPos="4.30" departSpeed="0.00" departDelay="16.00" arrival="153.00" arrivalLane="337277984#0_0" arrivalPos="108.85" arrivalSpeed="9.53" duration="137.00" routeLength="517.20" waitingTime="47.00" waitingCount="2" stopTime="0.00" timeLoss="69.59" rerouteNo="1" devices="tripinfo_f5.0 routing_f5.0" vType="car" speedFactor="0.88" vaporized=""/>
    <tripinfo id="f19.0" depart="8.00" departLane="567060342#0_0" departPos="4.30" departSpeed="0.00" departDelay="8.00" arrival="153.00" arrivalLane="337277957#0_0" arrivalPos="105.61" arrivalSpeed="8.80" duration="145.00" routeLength="513.28" waitingTime="60.00" waitingCount="2" stopTime="0.00" timeLoss="88.85" rerouteNo="1" devices="tripinfo_f19.0 routing_f19.0" vType="car" speedFactor="1.11" vaporized=""/>
    <tripinfo id="f12.0" depart="16.00" departLane="49217102_0" departPos="4.30" departSpeed="0.00" departDelay="16.00" arrival="168.00" arrivalLane="542428845#0_0" arrivalPos="103.93" arrivalSpeed="7.80" duration="152.00" routeLength="524.71" waitingTime="65.00" waitingCount="2" stopTime="0.00" timeLoss="84.72" rerouteNo="1" devices="tripinfo_f12.0 routing_f12.0" vType="car" speedFactor="0.95" vaporized=""/>
</tripinfos>
