<?xml version="1.0" encoding="UTF-8"?>

<!-- generated on 2025-06-21 20:22:07 by Eclipse SUMO sumo Version v1_22_0+1225-450f2e124d0
<sumoConfiguration xmlns:xsi="http://www.w3.org/2001/XMLSchema-instance" xsi:noNamespaceSchemaLocation="http://sumo.dlr.de/xsd/sumoConfiguration.xsd">

    <input>
        <net-file value="/home/juanpablo/Desktop/FuzzyTLS/sumo_files/osm.net_static.xml"/>
        <route-files value="/home/juanpablo/Desktop/FuzzyTLS/sumo_files/generated_routes_medium.rou.xml"/>
        <additional-files value="/home/juanpablo/Desktop/FuzzyTLS/sumo_files/osm.poly.xml.gz,/home/juanpablo/Desktop/FuzzyTLS/sumo_files/output.add.xml"/>
    </input>

    <output>
        <tripinfo-output value="/home/juanpablo/Desktop/FuzzyTLS/experiments/fuzzy_medium_00_1750555326/tripinfo.xml"/>
        <statistic-output value="/home/juanpablo/Desktop/FuzzyTLS/experiments/fuzzy_medium_00_1750555326/stats.xml"/>
    </output>

    <time>
        <step-length value="1.0"/>
    </time>

    <processing>
        <ignore-route-errors value="true"/>
        <tls.actuated.jam-threshold value="30"/>
    </processing>

    <routing>
        <device.rerouting.adaptation-steps value="18"/>
        <device.rerouting.adaptation-interval value="10"/>
    </routing>

    <report>
        <verbose value="true"/>
        <duration-log.statistics value="true"/>
        <no-step-log value="true"/>
    </report>

    <traci_server>
        <remote-port value="59331"/>
    </traci_server>

    <random_number>
        <seed value="0"/>
    </random_number>

    <gui_only>
        <gui-settings-file value="/home/juanpablo/Desktop/FuzzyTLS/sumo_files/osm.view.xml"/>
    </gui_only>

</sumoConfiguration>
-->

<tripinfos xmlns:xsi="http://www.w3.org/2001/XMLSchema-instance" xsi:noNamespaceSchemaLocation="http://sumo.dlr.de/xsd/tripinfo_file.xsd">
    <tripinfo id="f1.0" depart="0.00" departLane="40668087#1_0" departPos="4.30" departSpeed="0.00" departDelay="0.00" arrival="29.00" arrivalLane="542428845#0_0" arrivalPos="103.93" arrivalSpeed="9.19" duration="29.00" routeLength="217.05" waitingTime="0.00" waitingCount="0" stopTime="0.00" timeLoss="4.98" rerouteNo="0" devices="tripinfo_f1.0 routing_f1.0" vType="car" speedFactor="1.12" vaporized=""/>
    <tripinfo id="f8.0" depart="0.00" departLane="49217102_0" departPos="4.30" departSpeed="0.00" departDelay="0.00" arrival="37.00" arrivalLane="337277951#3_0" arrivalPos="38.80" arrivalSpeed="5.79" duration="37.00" routeLength="204.16" waitingTime="0.00" waitingCount="0" stopTime="0.00" timeLoss="4.52" rerouteNo="1" devices="tripinfo_f8.0 routing_f8.0" vType="car" speedFactor="0.76" vaporized=""/>
    <tripinfo id="f10.0" depart="8.00" departLane="49217102_0" departPos="4.30" departSpeed="0.00" departDelay="8.00" arrival="46.00" arrivalLane="337277973#1_1" arrivalPos="76.89" arrivalSpeed="10.30" duration="38.00" routeLength="299.80" waitingTime="0.00" waitingCount="0" stopTime="0.00" timeLoss="8.49" rerouteNo="1" devices="tripinfo_f10.0 routing_f10.0" vType="car" speedFactor="1.27" vaporized=""/>
    <tripinfo id="f6.0" depart="20.00" departLane="40668087#1_0" departPos="4.30" departSpeed="0.00" departDelay="20.00" arrival="50.00" arrivalLane="337277970#1_0" arrivalPos="79.16" arrivalSpeed="3.87" duration="30.00" routeLength="198.11" waitingTime="0.00" waitingCount="0" stopTime="0.00" timeLoss="9.04" rerouteNo="0" devices="tripinfo_f6.0 routing_f6.0" vType="car" speedFactor="1.16" vaporized=""/>
    <tripinfo id="f9.0" depart="4.00" departLane="49217102_0" departPos="4.30" departSpeed="0.00" departDelay="4.00" arrival="54.00" arrivalLane="1053072563_0" arrivalPos="107.94" arrivalSpeed="8.40" duration="50.00" routeLength="331.95" waitingTime="0.00" waitingCount="0" stopTime="0.00" timeLoss="11.63" rerouteNo="1" devices="tripinfo_f9.0 routing_f9.0" vType="car" speedFactor="1.05" vaporized=""/>
    <tripinfo id="f7.0" depart="24.00" departLane="40668087#1_0" departPos="4.30" departSpeed="0.00" departDelay="24.00" arrival="62.00" arrivalLane="337277951#1_1" arrivalPos="36.28" arrivalSpeed="7.34" duration="38.00" routeLength="245.81" waitingTime="0.00" waitingCount="0" stopTime="0.00" timeLoss="5.79" rerouteNo="1" devices="tripinfo_f7.0 routing_f7.0" vType="car" speedFactor="0.95" vaporized=""/>
    <tripinfo id="f11.0" depart="12.00" departLane="49217102_0" departPos="4.30" departSpeed="0.00" departDelay="12.00" arrival="62.00" arrivalLane="337277984#0_1" arrivalPos="108.85" arrivalSpeed="12.32" duration="50.00" routeLength="425.84" waitingTime="0.00" waitingCount="0" stopTime="0.00" timeLoss="7.25" rerouteNo="1" devices="tripinfo_f11.0 routing_f11.0" vType="car" speedFactor="1.13" vaporized=""/>
    <tripinfo id="f2.0" depart="4.00" departLane="40668087#1_0" departPos="4.30" departSpeed="0.00" departDelay="4.00" arrival="63.00" arrivalLane="337277957#0_0" arrivalPos="105.61" arrivalSpeed="8.50" duration="59.00" routeLength="318.86" waitingTime="10.00" waitingCount="1" stopTime="0.00" timeLoss="22.25" rerouteNo="1" devices="tripinfo_f2.0 routing_f2.0" vType="car" speedFactor="1.05" vaporized=""/>
    <tripinfo id="f14.0" depart="4.00" departLane="42143912#5_0" departPos="4.30" departSpeed="0.00" departDelay="4.00" arrival="63.00" arrivalLane="542428845#0_0" arrivalPos="103.93" arrivalSpeed="7.69" duration="59.00" routeLength="270.22" waitingTime="16.00" waitingCount="1" stopTime="0.00" timeLoss="25.63" rerouteNo="1" devices="tripinfo_f14.0 routing_f14.0" vType="car" speedFactor="0.99" vaporized=""/>
    <tripinfo id="f17.0" depart="0.00" departLane="567060342#0_0" departPos="4.30" departSpeed="0.00" departDelay="0.00" arrival="72.00" arrivalLane="337277984#0_0" arrivalPos="108.85" arrivalSpeed="11.28" duration="72.00" routeLength="321.43" waitingTime="26.00" waitingCount="1" stopTime="0.00" timeLoss="38.12" rerouteNo="1" devices="tripinfo_f17.0 routing_f17.0" vType="car" speedFactor="1.06" vaporized=""/>
    <tripinfo id="f13.0" depart="0.00" departLane="42143912#5_0" departPos="4.30" departSpeed="0.00" departDelay="0.00" arrival="77.00" arrivalLane="337277957#0_0" arrivalPos="105.61" arrivalSpeed="7.75" duration="77.00" routeLength="363.20" waitingTime="19.00" waitingCount="1" stopTime="0.00" timeLoss="29.18" rerouteNo="1" devices="tripinfo_f13.0 routing_f13.0" vType="car" speedFactor="0.93" vaporized=""/>
    <tripinfo id="f18.0" depart="4.00" departLane="567060342#0_0" departPos="4.30" departSpeed="0.00" departDelay="4.00" arrival="106.00" arrivalLane="542428845#0_0" arrivalPos="103.93" arrivalSpeed="6.03" duration="102.00" routeLength="420.30" waitingTime="20.00" waitingCount="1" stopTime="0.00" timeLoss="31.61" rerouteNo="1" devices="tripinfo_f18.0 routing_f18.0" vType="car" speedFactor="0.72" vaporized=""/>
    <tripinfo id="f19.0" depart="8.00" departLane="567060342#0_0" departPos="4.30" departSpeed="0.00" departDelay="8.00" arrival="106.00" arrivalLane="337277957#0_1" arrivalPos="105.61" arrivalSpeed="9.13" duration="98.00" routeLength="513.28" waitingTime="20.00" waitingCount="1" stopTime="0.00" timeLoss="41.78" rerouteNo="1" devices="tripinfo_f19.0 routing_f19.0" vType="car" speedFactor="1.11" vaporized=""/>
    <tripinfo id="f3.0" depart="8.00" departLane="40668087#1_0" departPos="4.30" departSpeed="0.00" departDelay="8.00" arrival="108.00" arrivalLane="1053072563_0" arrivalPos="107.94" arrivalSpeed="8.56" duration="100.00" routeLength="423.31" waitingTime="33.00" waitingCount="2" stopTime="0.00" timeLoss="50.26" rerouteNo="1" devices="tripinfo_f3.0 routing_f3.0" vType="car" speedFactor="1.03" vaporized=""/>
    <tripinfo id="f15.0" depart="8.00" departLane="42143912#5_0" departPos="4.30" departSpeed="0.00" departDelay="8.00" arrival="111.00" arrivalLane="1053072563_0" arrivalPos="107.94" arrivalSpeed="8.22" duration="103.00" routeLength="467.65" waitingTime="29.00" waitingCount="2" stopTime="0.00" timeLoss="47.86" rerouteNo="1" devices="tripinfo_f15.0 routing_f15.0" vType="car" speedFactor="1.04" vaporized=""/>
    <tripinfo id="f4.0" depart="12.00" departLane="40668087#1_0" departPos="4.30" departSpeed="0.00" departDelay="12.00" arrival="140.00" arrivalLane="337277973#1_0" arrivalPos="76.89" arrivalSpeed="4.23" duration="128.00" routeLength="391.16" waitingTime="57.00" waitingCount="3" stopTime="0.00" timeLoss="80.68" rerouteNo="1" devices="tripinfo_f4.0 routing_f4.0" vType="car" speedFactor="1.02" vaporized=""/>
    <tripinfo id="f16.0" depart="12.00" departLane="42143912#5_0" departPos="4.30" departSpeed="0.00" departDelay="12.00" arrival="140.00" arrivalLane="337277973#1_1" arrivalPos="76.89" arrivalSpeed="4.18" duration="128.00" routeLength="435.50" waitingTime="43.00" waitingCount="4" stopTime="0.00" timeLoss="76.94" rerouteNo="1" devices="tripinfo_f16.0 routing_f16.0" vType="car" speedFactor="1.04" vaporized=""/>
    <tripinfo id="f5.0" depart="16.00" departLane="40668087#1_0" departPos="4.30" departSpeed="0.00" departDelay="16.00" arrival="153.00" arrivalLane="337277984#0_0" arrivalPos="108.85" arrivalSpeed="9.53" duration="137.00" routeLength="517.20" waitingTime="47.00" waitingCount="2" stopTime="0.00" timeLoss="69.59" rerouteNo="1" devices="tripinfo_f5.0 routing_f5.0" vType="car" speedFactor="0.88" vaporized=""/>
    <tripinfo id="f12.0" depart="16.00" departLane="49217102_0" departPos="4.30" departSpeed="0.00" departDelay="16.00" arrival="168.00" arrivalLane="542428845#0_0" arrivalPos="103.93" arrivalSpeed="7.80" duration="152.00" routeLength="524.71" waitingTime="65.00" waitingCount="2" stopTime="0.00" timeLoss="84.73" rerouteNo="1" devices="tripinfo_f12.0 routing_f12.0" vType="car" speedFactor="0.95" vaporized=""/>
    <tripinfo id="f8.1" depart="139.00" departLane="49217102_0" departPos="4.30" departSpeed="0.00" departDelay="0.54" arrival="169.00" arrivalLane="337277951#3_0" arrivalPos="38.80" arrivalSpeed="7.65" duration="30.00" routeLength="204.16" waitingTime="0.00" waitingCount="0" stopTime="0.00" timeLoss="4.82" rerouteNo="1" devices="tripinfo_f8.1 routing_f8.1" vType="car" speedFactor="0.98" vaporized=""/>
    <tripinfo id="f17.1" depart="139.00" departLane="567060342#0_0" departPos="4.30" departSpeed="0.00" departDelay="0.54" arrival="176.00" arrivalLane="337277984#0_0" arrivalPos="108.85" arrivalSpeed="12.00" duration="37.00" routeLength="321.43" waitingTime="0.00" waitingCount="0" stopTime="0.00" timeLoss="5.74" rerouteNo="1" devices="tripinfo_f17.1 routing_f17.1" vType="car" speedFactor="1.13" vaporized=""/>
    <tripinfo id="f1.1" depart="139.00" departLane="40668087#1_0" departPos="4.30" departSpeed="0.00" departDelay="0.54" arrival="199.00" arrivalLane="542428845#0_0" arrivalPos="103.93" arrivalSpeed="7.47" duration="60.00" routeLength="217.05" waitingTime="19.00" waitingCount="1" stopTime="0.00" timeLoss="31.14" rerouteNo="0" devices="tripinfo_f1.1 routing_f1.1" vType="car" speedFactor="0.94" vaporized=""/>
    <tripinfo id="f9.1" depart="143.00" departLane="49217102_0" departPos="4.30" departSpeed="0.00" departDelay="4.54" arrival="199.00" arrivalLane="1053072563_0" arrivalPos="107.94" arrivalSpeed="8.33" duration="56.00" routeLength="331.95" waitingTime="4.00" waitingCount="1" stopTime="0.00" timeLoss="16.27" rerouteNo="1" devices="tripinfo_f9.1 routing_f9.1" vType="car" speedFactor="1.02" vaporized=""/>
    <tripinfo id="f6.1" depart="160.00" departLane="40668087#1_0" departPos="4.30" departSpeed="0.00" departDelay="21.54" arrival="213.00" arrivalLane="337277970#1_0" arrivalPos="79.16" arrivalSpeed="3.64" duration="53.00" routeLength="198.11" waitingTime="9.00" waitingCount="2" stopTime="0.00" timeLoss="27.65" rerouteNo="0" devices="tripinfo_f6.1 routing_f6.1" vType="car" speedFactor="0.94" vaporized=""/>
    <tripinfo id="f10.1" depart="147.00" departLane="49217102_0" departPos="4.30" departSpeed="0.00" departDelay="8.54" arrival="223.00" arrivalLane="337277973#1_0" arrivalPos="76.89" arrivalSpeed="4.31" duration="76.00" routeLength="299.80" waitingTime="24.00" waitingCount="1" stopTime="0.00" timeLoss="40.56" rerouteNo="1" devices="tripinfo_f10.1 routing_f10.1" vType="car" speedFactor="1.03" vaporized=""/>
    <tripinfo id="f2.1" depart="143.00" departLane="40668087#1_0" departPos="4.30" departSpeed="0.00" departDelay="4.54" arrival="227.00" arrivalLane="337277957#0_0" arrivalPos="105.61" arrivalSpeed="9.43" duration="84.00" routeLength="318.86" waitingTime="29.00" waitingCount="2" stopTime="0.00" timeLoss="51.04" rerouteNo="1" devices="tripinfo_f2.1 routing_f2.1" vType="car" speedFactor="1.18" vaporized=""/>
    <tripinfo id="f7.1" depart="164.00" departLane="40668087#1_0" departPos="4.30" departSpeed="0.00" departDelay="25.54" arrival="227.00" arrivalLane="337277951#1_1" arrivalPos="36.28" arrivalSpeed="7.12" duration="63.00" routeLength="245.81" waitingTime="10.00" waitingCount="2" stopTime="0.00" timeLoss="35.42" rerouteNo="1" devices="tripinfo_f7.1 routing_f7.1" vType="car" speedFactor="1.09" vaporized=""/>
    <tripinfo id="f11.1" depart="151.00" departLane="49217102_0" departPos="4.30" departSpeed="0.00" departDelay="12.54" arrival="243.00" arrivalLane="337277984#0_0" arrivalPos="108.85" arrivalSpeed="11.29" duration="92.00" routeLength="425.84" waitingTime="24.00" waitingCount="2" stopTime="0.00" timeLoss="45.71" rerouteNo="1" devices="tripinfo_f11.1 routing_f11.1" vType="car" speedFactor="1.05" vaporized=""/>
    <tripinfo id="f18.1" depart="143.00" departLane="567060342#0_0" departPos="4.30" departSpeed="0.00" departDelay="4.54" arrival="243.00" arrivalLane="542428845#0_0" arrivalPos="103.93" arrivalSpeed="8.73" duration="100.00" routeLength="420.30" waitingTime="40.00" waitingCount="1" stopTime="0.00" timeLoss="51.86" rerouteNo="1" devices="tripinfo_f18.1 routing_f18.1" vType="car" speedFactor="1.05" vaporized=""/>
    <tripinfo id="f14.1" depart="143.00" departLane="42143912#5_0" departPos="4.30" departSpeed="0.00" departDelay="4.54" arrival="249.00" arrivalLane="542428845#0_0" arrivalPos="103.93" arrivalSpeed="6.77" duration="106.00" routeLength="270.22" waitingTime="49.00" waitingCount="2" stopTime="0.00" timeLoss="66.89" rerouteNo="1" devices="tripinfo_f14.1 routing_f14.1" vType="car" speedFactor="0.84" vaporized=""/>
    <tripinfo id="f12.1" depart="155.00" departLane="49217102_0" departPos="4.30" departSpeed="0.00" departDelay="16.54" arrival="256.00" arrivalLane="542428845#0_0" arrivalPos="103.93" arrivalSpeed="9.37" duration="101.00" routeLength="524.71" waitingTime="19.00" waitingCount="1" stopTime="0.00" timeLoss="45.09" rerouteNo="1" devices="tripinfo_f12.1 routing_f12.1" vType="car" speedFactor="1.15" vaporized=""/>
    <tripinfo id="f13.1" depart="139.00" departLane="42143912#5_0" departPos="4.30" departSpeed="0.00" departDelay="0.54" arrival="270.00" arrivalLane="337277957#0_0" arrivalPos="105.61" arrivalSpeed="9.51" duration="131.00" routeLength="363.20" waitingTime="66.00" waitingCount="3" stopTime="0.00" timeLoss="94.22" rerouteNo="1" devices="tripinfo_f13.1 routing_f13.1" vType="car" speedFactor="1.19" vaporized=""/>
    <tripinfo id="f19.1" depart="147.00" departLane="567060342#0_0" departPos="4.30" departSpeed="0.00" departDelay="8.54" arrival="278.00" arrivalLane="337277957#0_0" arrivalPos="105.61" arrivalSpeed="6.92" duration="131.00" routeLength="513.28" waitingTime="43.00" waitingCount="1" stopTime="0.00" timeLoss="60.60" rerouteNo="1" devices="tripinfo_f19.1 routing_f19.1" vType="car" speedFactor="0.88" vaporized=""/>
    <tripinfo id="f4.1" depart="152.00" departLane="40668087#1_0" departPos="4.30" departSpeed="0.00" departDelay="13.54" arrival="285.00" arrivalLane="337277973#1_1" arrivalPos="76.89" arrivalSpeed="8.34" duration="133.00" routeLength="391.16" waitingTime="56.00" waitingCount="3" stopTime="0.00" timeLoss="85.29" rerouteNo="1" devices="tripinfo_f4.1 routing_f4.1" vType="car" speedFactor="1.01" vaporized=""/>
    <tripinfo id="f16.1" depart="151.00" departLane="42143912#5_0" departPos="4.30" departSpeed="0.00" departDelay="12.54" arrival="289.00" arrivalLane="337277973#1_1" arrivalPos="76.89" arrivalSpeed="8.07" duration="138.00" routeLength="435.50" waitingTime="50.00" waitingCount="3" stopTime="0.00" timeLoss="86.59" rerouteNo="1" devices="tripinfo_f16.1 routing_f16.1" vType="car" speedFactor="1.03" vaporized=""/>
    <tripinfo id="f3.1" depart="148.00" departLane="40668087#1_0" departPos="4.30" departSpeed="0.00" departDelay="9.54" arrival="290.00" arrivalLane="1053072563_0" arrivalPos="107.94" arrivalSpeed="6.99" duration="142.00" routeLength="423.31" waitingTime="63.00" waitingCount="3" stopTime="0.00" timeLoss="84.36" rerouteNo="1" devices="tripinfo_f3.1 routing_f3.1" vType="car" speedFactor="0.89" vaporized=""/>
    <tripinfo id="f15.1" depart="147.00" departLane="42143912#5_0" departPos="4.30" departSpeed="0.00" departDelay="8.54" arrival="292.00" arrivalLane="1053072563_0" arrivalPos="107.94" arrivalSpeed="7.72" duration="145.00" routeLength="467.65" waitingTime="55.00" waitingCount="3" stopTime="0.00" timeLoss="87.68" rerouteNo="1" devices="tripinfo_f15.1 routing_f15.1" vType="car" speedFactor="0.99" vaporized=""/>
    <tripinfo id="f8.2" depart="277.00" departLane="49217102_0" departPos="4.30" departSpeed="0.00" departDelay="0.08" arrival="304.00" arrivalLane="337277951#3_0" arrivalPos="38.80" arrivalSpeed="9.29" duration="27.00" routeLength="204.16" waitingTime="0.00" waitingCount="0" stopTime="0.00" timeLoss="5.48" rerouteNo="1" devices="tripinfo_f8.2 routing_f8.2" vType="car" speedFactor="1.18" vaporized=""/>
    <tripinfo id="f1.2" depart="277.00" departLane="40668087#1_0" departPos="4.30" departSpeed="0.00" departDelay="0.08" arrival="310.00" arrivalLane="542428845#0_0" arrivalPos="103.93" arrivalSpeed="7.56" duration="33.00" routeLength="217.05" waitingTime="0.00" waitingCount="0" stopTime="0.00" timeLoss="5.01" rerouteNo="0" devices="tripinfo_f1.2 routing_f1.2" vType="car" speedFactor="0.94" vaporized=""/>
    <tripinfo id="f14.2" depart="281.00" departLane="42143912#5_0" departPos="4.30" departSpeed="0.00" departDelay="4.08" arrival="332.00" arrivalLane="542428845#0_0" arrivalPos="103.93" arrivalSpeed="8.96" duration="51.00" routeLength="270.22" waitingTime="9.00" waitingCount="1" stopTime="0.00" timeLoss="21.82" rerouteNo="1" devices="tripinfo_f14.2 routing_f14.2" vType="car" speedFactor="1.11" vaporized=""/>
    <tripinfo id="f2.2" depart="281.00" departLane="40668087#1_0" departPos="4.30" departSpeed="0.00" departDelay="4.08" arrival="333.00" arrivalLane="337277957#0_0" arrivalPos="105.61" arrivalSpeed="6.84" duration="52.00" routeLength="318.86" waitingTime="0.00" waitingCount="0" stopTime="0.00" timeLoss="5.68" rerouteNo="1" devices="tripinfo_f2.2 routing_f2.2" vType="car" speedFactor="0.84" vaporized=""/>
    <tripinfo id="f5.1" depart="156.00" departLane="40668087#1_0" departPos="4.30" departSpeed="0.00" departDelay="17.54" arrival="334.00" arrivalLane="337277984#0_0" arrivalPos="108.85" arrivalSpeed="7.92" duration="178.00" routeLength="517.20" waitingTime="70.00" waitingCount="4" stopTime="0.00" timeLoss="99.15" rerouteNo="1" devices="tripinfo_f5.1 routing_f5.1" vType="car" speedFactor="0.75" vaporized=""/>
    <tripinfo id="f17.2" depart="277.00" departLane="567060342#0_0" departPos="4.30" departSpeed="0.00" departDelay="0.08" arrival="344.00" arrivalLane="337277984#0_0" arrivalPos="108.85" arrivalSpeed="9.81" duration="67.00" routeLength="321.43" waitingTime="18.00" waitingCount="1" stopTime="0.00" timeLoss="29.08" rerouteNo="1" devices="tripinfo_f17.2 routing_f17.2" vType="car" speedFactor="0.92" vaporized=""/>
    <tripinfo id="f18.2" depart="281.00" departLane="567060342#0_0" departPos="4.30" departSpeed="0.00" departDelay="4.08" arrival="357.00" arrivalLane="542428845#0_0" arrivalPos="103.93" arrivalSpeed="8.58" duration="76.00" routeLength="420.30" waitingTime="18.00" waitingCount="1" stopTime="0.00" timeLoss="29.68" rerouteNo="1" devices="tripinfo_f18.2 routing_f18.2" vType="car" speedFactor="1.09" vaporized=""/>
    <tripinfo id="f13.2" depart="277.00" departLane="42143912#5_0" departPos="4.30" departSpeed="0.00" departDelay="0.08" arrival="366.00" arrivalLane="337277957#0_0" arrivalPos="105.61" arrivalSpeed="7.65" duration="89.00" routeLength="363.20" waitingTime="26.00" waitingCount="2" stopTime="0.00" timeLoss="41.86" rerouteNo="1" devices="tripinfo_f13.2 routing_f13.2" vType="car" speedFactor="0.93" vaporized=""/>
    <tripinfo id="f6.2" depart="297.00" departLane="40668087#1_0" departPos="4.30" departSpeed="0.00" departDelay="20.08" arrival="376.00" arrivalLane="337277970#1_0" arrivalPos="79.16" arrivalSpeed="7.56" duration="79.00" routeLength="198.11" waitingTime="42.00" waitingCount="1" stopTime="0.00" timeLoss="52.79" rerouteNo="0" devices="tripinfo_f6.2 routing_f6.2" vType="car" speedFactor="0.93" vaporized=""/>
    <tripinfo id="f10.2" depart="285.00" departLane="49217102_0" departPos="4.30" departSpeed="0.00" departDelay="8.08" arrival="377.00" arrivalLane="337277973#1_1" arrivalPos="76.89" arrivalSpeed="6.03" duration="92.00" routeLength="299.80" waitingTime="31.00" waitingCount="2" stopTime="0.00" timeLoss="43.59" rerouteNo="1" devices="tripinfo_f10.2 routing_f10.2" vType="car" speedFactor="0.75" vaporized=""/>
    <tripinfo id="f3.2" depart="285.00" departLane="40668087#1_0" departPos="4.30" departSpeed="0.00" departDelay="8.08" arrival="381.00" arrivalLane="1053072563_0" arrivalPos="107.94" arrivalSpeed="7.10" duration="96.00" routeLength="423.31" waitingTime="25.00" waitingCount="1" stopTime="0.00" timeLoss="38.21" rerouteNo="1" devices="tripinfo_f3.2 routing_f3.2" vType="car" speedFactor="0.89" vaporized=""/>
    <tripinfo id="f9.2" depart="281.00" departLane="49217102_0" departPos="4.30" departSpeed="0.00" departDelay="4.08" arrival="384.00" arrivalLane="1053072563_0" arrivalPos="107.94" arrivalSpeed="6.48" duration="103.00" routeLength="331.95" waitingTime="39.00" waitingCount="2" stopTime="0.00" timeLoss="55.64" rerouteNo="1" devices="tripinfo_f9.2 routing_f9.2" vType="car" speedFactor="0.85" vaporized=""/>
    <tripinfo id="f15.2" depart="285.00" departLane="42143912#5_0" departPos="4.30" departSpeed="0.00" departDelay="8.08" arrival="386.00" arrivalLane="1053072563_0" arrivalPos="107.94" arrivalSpeed="7.36" duration="101.00" routeLength="467.65" waitingTime="22.00" waitingCount="2" stopTime="0.00" timeLoss="41.28" rerouteNo="1" devices="tripinfo_f15.2 routing_f15.2" vType="car" speedFactor="0.95" vaporized=""/>
    <tripinfo id="f7.2" depart="301.00" departLane="40668087#1_0" departPos="4.30" departSpeed="0.00" departDelay="24.08" arrival="401.00" arrivalLane="337277951#1_1" arrivalPos="36.28" arrivalSpeed="6.87" duration="100.00" routeLength="245.81" waitingTime="50.00" waitingCount="2" stopTime="0.00" timeLoss="66.01" rerouteNo="1" devices="tripinfo_f7.2 routing_f7.2" vType="car" speedFactor="0.88" vaporized=""/>
    <tripinfo id="f4.2" depart="289.00" departLane="40668087#1_0" departPos="4.30" departSpeed="0.00" departDelay="12.08" arrival="410.00" arrivalLane="337277973#1_1" arrivalPos="76.89" arrivalSpeed="3.60" duration="121.00" routeLength="391.16" waitingTime="49.00" waitingCount="2" stopTime="0.00" timeLoss="73.52" rerouteNo="1" devices="tripinfo_f4.2 routing_f4.2" vType="car" speedFactor="1.01" vaporized=""/>
    <tripinfo id="f16.2" depart="289.00" departLane="42143912#5_0" departPos="4.30" departSpeed="0.00" departDelay="12.08" arrival="413.00" arrivalLane="337277973#1_1" arrivalPos="76.89" arrivalSpeed="5.25" duration="124.00" routeLength="435.50" waitingTime="33.00" waitingCount="3" stopTime="0.00" timeLoss="63.32" rerouteNo="1" devices="tripinfo_f16.2 routing_f16.2" vType="car" speedFactor="0.88" vaporized=""/>
    <tripinfo id="f11.2" depart="289.00" departLane="49217102_0" departPos="4.30" departSpeed="0.00" departDelay="12.08" arrival="422.00" arrivalLane="337277984#0_0" arrivalPos="108.85" arrivalSpeed="9.23" duration="133.00" routeLength="425.84" waitingTime="52.00" waitingCount="3" stopTime="0.00" timeLoss="77.73" rerouteNo="1" devices="tripinfo_f11.2 routing_f11.2" vType="car" speedFactor="0.86" vaporized=""/>
    <tripinfo id="f5.2" depart="293.00" departLane="40668087#1_0" departPos="4.30" departSpeed="0.00" departDelay="16.08" arrival="424.00" arrivalLane="337277984#0_0" arrivalPos="108.85" arrivalSpeed="10.03" duration="131.00" routeLength="517.20" waitingTime="39.00" waitingCount="3" stopTime="0.00" timeLoss="65.90" rerouteNo="1" devices="tripinfo_f5.2 routing_f5.2" vType="car" speedFactor="0.91" vaporized=""/>
    <tripinfo id="f12.2" depart="293.00" departLane="49217102_0" departPos="4.30" departSpeed="0.00" departDelay="16.08" arrival="440.00" arrivalLane="542428845#0_0" arrivalPos="103.93" arrivalSpeed="7.17" duration="147.00" routeLength="524.71" waitingTime="49.00" waitingCount="3" stopTime="0.00" timeLoss="76.09" rerouteNo="1" devices="tripinfo_f12.2 routing_f12.2" vType="car" speedFactor="0.90" vaporized=""/>
    <tripinfo id="f19.2" depart="285.00" departLane="567060342#0_0" departPos="4.30" departSpeed="0.00" departDelay="8.08" arrival="453.00" arrivalLane="337277957#0_0" arrivalPos="105.61" arrivalSpeed="5.54" duration="168.00" routeLength="513.28" waitingTime="58.00" waitingCount="3" stopTime="0.00" timeLoss="77.46" rerouteNo="1" devices="tripinfo_f19.2 routing_f19.2" vType="car" speedFactor="0.68" vaporized=""/>
    <tripinfo id="f1.3" depart="416.00" departLane="40668087#1_0" departPos="4.30" departSpeed="0.00" departDelay="0.61" arrival="467.00" arrivalLane="542428845#0_0" arrivalPos="103.93" arrivalSpeed="9.90" duration="51.00" routeLength="217.05" waitingTime="15.00" waitingCount="1" stopTime="0.00" timeLoss="28.70" rerouteNo="0" devices="tripinfo_f1.3 routing_f1.3" vType="car" speedFactor="1.22" vaporized=""/>
    <tripinfo id="f8.3" depart="416.00" departLane="49217102_0" departPos="4.30" departSpeed="0.00" departDelay="0.61" arrival="469.00" arrivalLane="337277951#3_0" arrivalPos="38.80" arrivalSpeed="9.41" duration="53.00" routeLength="204.16" waitingTime="20.00" waitingCount="1" stopTime="0.00" timeLoss="31.78" rerouteNo="1" devices="tripinfo_f8.3 routing_f8.3" vType="car" speedFactor="1.18" vaporized=""/>
    <tripinfo id="f6.3" depart="436.00" departLane="40668087#1_0" departPos="4.30" departSpeed="0.00" departDelay="20.61" arrival="484.00" arrivalLane="337277970#1_0" arrivalPos="79.16" arrivalSpeed="3.46" duration="48.00" routeLength="198.11" waitingTime="4.00" waitingCount="1" stopTime="0.00" timeLoss="23.08" rerouteNo="0" devices="tripinfo_f6.3 routing_f6.3" vType="car" speedFactor="0.96" vaporized=""/>
    <tripinfo id="f9.3" depart="420.00" departLane="49217102_0" departPos="4.30" departSpeed="0.00" departDelay="4.61" arrival="488.00" arrivalLane="1053072563_0" arrivalPos="107.94" arrivalSpeed="8.15" duration="68.00" routeLength="331.95" waitingTime="15.00" waitingCount="1" stopTime="0.00" timeLoss="28.15" rerouteNo="1" devices="tripinfo_f9.3 routing_f9.3" vType="car" speedFactor="1.02" vaporized=""/>
    <tripinfo id="f7.3" depart="439.00" departLane="40668087#1_0" departPos="4.30" departSpeed="0.00" departDelay="23.61" arrival="495.00" arrivalLane="337277951#1_1" arrivalPos="36.28" arrivalSpeed="7.81" duration="56.00" routeLength="245.81" waitingTime="6.00" waitingCount="2" stopTime="0.00" timeLoss="25.76" rerouteNo="1" devices="tripinfo_f7.3 routing_f7.3" vType="car" speedFactor="0.98" vaporized=""/>
    <tripinfo id="f2.3" depart="420.00" departLane="40668087#1_0" departPos="4.30" departSpeed="0.00" departDelay="4.61" arrival="499.00" arrivalLane="337277957#0_0" arrivalPos="105.61" arrivalSpeed="7.85" duration="79.00" routeLength="318.86" waitingTime="21.00" waitingCount="2" stopTime="0.00" timeLoss="38.14" rerouteNo="1" devices="tripinfo_f2.3 routing_f2.3" vType="car" speedFactor="0.95" vaporized=""/>
    <tripinfo id="f10.3" depart="424.00" departLane="49217102_0" departPos="4.30" departSpeed="0.00" departDelay="8.61" arrival="502.00" arrivalLane="337277973#1_1" arrivalPos="76.89" arrivalSpeed="4.76" duration="78.00" routeLength="299.80" waitingTime="18.00" waitingCount="2" stopTime="0.00" timeLoss="34.08" rerouteNo="1" devices="tripinfo_f10.3 routing_f10.3" vType="car" speedFactor="0.83" vaporized=""/>
    <tripinfo id="f17.3" depart="416.00" departLane="567060342#0_0" departPos="4.30" departSpeed="0.00" departDelay="0.61" arrival="513.00" arrivalLane="337277984#0_0" arrivalPos="108.85" arrivalSpeed="9.80" duration="97.00" routeLength="321.43" waitingTime="46.00" waitingCount="1" stopTime="0.00" timeLoss="57.63" rerouteNo="1" devices="tripinfo_f17.3 routing_f17.3" vType="car" speedFactor="0.91" vaporized=""/>
    <tripinfo id="f11.3" depart="428.00" departLane="49217102_0" departPos="4.30" departSpeed="0.00" departDelay="12.61" arrival="514.00" arrivalLane="337277984#0_0" arrivalPos="108.85" arrivalSpeed="10.88" duration="86.00" routeLength="425.84" waitingTime="11.00" waitingCount="1" stopTime="0.00" timeLoss="38.11" rerouteNo="1" devices="tripinfo_f11.3 routing_f11.3" vType="car" speedFactor="1.00" vaporized=""/>
    <tripinfo id="f14.3" depart="420.00" departLane="42143912#5_0" departPos="4.30" departSpeed="0.00" departDelay="4.61" arrival="514.00" arrivalLane="542428845#0_0" arrivalPos="103.93" arrivalSpeed="8.35" duration="94.00" routeLength="270.22" waitingTime="45.00" waitingCount="2" stopTime="0.00" timeLoss="62.34" rerouteNo="1" devices="tripinfo_f14.3 routing_f14.3" vType="car" speedFactor="1.05" vaporized=""/>
    <tripinfo id="f18.3" depart="420.00" departLane="567060342#0_0" departPos="4.30" departSpeed="0.00" departDelay="4.61" arrival="530.00" arrivalLane="542428845#0_0" arrivalPos="103.93" arrivalSpeed="6.94" duration="110.00" routeLength="420.30" waitingTime="40.00" waitingCount="1" stopTime="0.00" timeLoss="52.49" rerouteNo="1" devices="tripinfo_f18.3 routing_f18.3" vType="car" speedFactor="0.88" vaporized=""/>