<?xml version="1.0" encoding="UTF-8"?>

<!-- generated on 2025-06-21 22:29:44 by Eclipse SUMO sumo Version v1_22_0+1225-450f2e124d0
<sumoConfiguration xmlns:xsi="http://www.w3.org/2001/XMLSchema-instance" xsi:noNamespaceSchemaLocation="http://sumo.dlr.de/xsd/sumoConfiguration.xsd">

    <input>
        <net-file value="/home/juanpablo/Desktop/FuzzyTLS/sumo_files/osm.net_static.xml"/>
        <route-files value="/home/juanpablo/Desktop/FuzzyTLS/sumo_files/generated_routes_medium.rou.xml"/>
        <additional-files value="/home/juanpablo/Desktop/FuzzyTLS/sumo_files/osm.poly.xml.gz,/home/juanpablo/Desktop/FuzzyTLS/sumo_files/output.add.xml"/>
    </input>

    <output>
        <tripinfo-output value="/home/juanpablo/Desktop/FuzzyTLS/experiments/fuzzy_medium_01_1750562983/tripinfo.xml"/>
        <statistic-output value="/home/juanpablo/Desktop/FuzzyTLS/experiments/fuzzy_medium_01_1750562983/stats.xml"/>
    </output>

    <time>
        <step-length value="1.0"/>
    </time>

    <processing>
        <ignore-route-errors value="true"/>
        <tls.actuated.jam-threshold value="30"/>
    </processing>

    <routing>
        <device.rerouting.adaptation-steps value="18"/>
        <device.rerouting.adaptation-interval value="10"/>
    </routing>

    <report>
        <verbose value="true"/>
        <duration-log.statistics value="true"/>
        <no-step-log value="true"/>
    </report>

    <traci_server>
        <remote-port value="54173"/>
    </traci_server>

    <random_number>
        <seed value="1"/>
    </random_number>

    <gui_only>
        <gui-settings-file value="/home/juanpablo/Desktop/FuzzyTLS/sumo_files/osm.view.xml"/>
    </gui_only>

</sumoConfiguration>
-->

<tripinfos xmlns:xsi="http://www.w3.org/2001/XMLSchema-instance" xsi:noNamespaceSchemaLocation="http://sumo.dlr.de/xsd/tripinfo_file.xsd">
    <tripinfo id="f1.0" depart="0.00" departLane="40668087#1_0" departPos="4.30" departSpeed="0.00" departDelay="0.00" arrival="31.00" arrivalLane="542428845#0_0" arrivalPos="103.93" arrivalSpeed="7.86" duration="31.00" routeLength="217.05" waitingTime="0.00" waitingCount="0" stopTime="0.00" timeLoss="5.01" rerouteNo="0" devices="tripinfo_f1.0 routing_f1.0" vType="car" speedFactor="1.02" vaporized=""/>
    <tripinfo id="f8.0" depart="0.00" departLane="49217102_0" departPos="4.30" departSpeed="0.00" departDelay="0.00" arrival="32.00" arrivalLane="337277951#3_0" arrivalPos="38.80" arrivalSpeed="7.46" duration="32.00" routeLength="204.16" waitingTime="0.00" waitingCount="0" stopTime="0.00" timeLoss="4.90" rerouteNo="1" devices="tripinfo_f8.0 routing_f8.0" vType="car" speedFactor="0.92" vaporized=""/>
    <tripinfo id="f9.0" depart="4.00" departLane="49217102_0" departPos="4.30" departSpeed="0.00" departDelay="4.00" arrival="47.00" arrivalLane="1053072563_0" arrivalPos="107.94" arrivalSpeed="9.75" duration="43.00" routeLength="331.95" waitingTime="0.00" waitingCount="0" stopTime="0.00" timeLoss="9.38" rerouteNo="1" devices="tripinfo_f9.0 routing_f9.0" vType="car" speedFactor="1.20" vaporized=""/>
    <tripinfo id="f6.0" depart="20.00" departLane="40668087#1_0" departPos="4.30" departSpeed="0.00" departDelay="20.00" arrival="50.00" arrivalLane="337277970#1_0" arrivalPos="79.16" arrivalSpeed="8.20" duration="30.00" routeLength="198.11" waitingTime="0.00" waitingCount="0" stopTime="0.00" timeLoss="5.09" rerouteNo="0" devices="tripinfo_f6.0 routing_f6.0" vType="car" speedFactor="0.98" vaporized=""/>
    <tripinfo id="f7.0" depart="24.00" departLane="40668087#1_0" departPos="4.30" departSpeed="0.00" departDelay="24.00" arrival="62.00" arrivalLane="337277951#1_1" arrivalPos="36.28" arrivalSpeed="8.38" duration="38.00" routeLength="245.81" waitingTime="0.00" waitingCount="0" stopTime="0.00" timeLoss="8.15" rerouteNo="1" devices="tripinfo_f7.0 routing_f7.0" vType="car" speedFactor="1.01" vaporized=""/>
    <tripinfo id="f2.0" depart="4.00" departLane="40668087#1_0" departPos="4.30" departSpeed="0.00" departDelay="4.00" arrival="64.00" arrivalLane="337277957#0_0" arrivalPos="105.61" arrivalSpeed="7.44" duration="60.00" routeLength="318.86" waitingTime="9.00" waitingCount="1" stopTime="0.00" timeLoss="19.13" rerouteNo="1" devices="tripinfo_f2.0 routing_f2.0" vType="car" speedFactor="0.94" vaporized=""/>
    <tripinfo id="f14.0" depart="4.00" departLane="42143912#5_0" departPos="4.30" departSpeed="0.00" departDelay="4.00" arrival="67.00" arrivalLane="542428845#0_0" arrivalPos="103.93" arrivalSpeed="5.97" duration="63.00" routeLength="270.22" waitingTime="11.00" waitingCount="1" stopTime="0.00" timeLoss="20.63" rerouteNo="1" devices="tripinfo_f14.0 routing_f14.0" vType="car" speedFactor="0.77" vaporized=""/>
    <tripinfo id="f17.0" depart="0.00" departLane="567060342#0_0" departPos="4.30" departSpeed="0.00" departDelay="0.00" arrival="72.00" arrivalLane="337277984#0_0" arrivalPos="108.85" arrivalSpeed="11.91" duration="72.00" routeLength="321.43" waitingTime="26.00" waitingCount="1" stopTime="0.00" timeLoss="39.28" rerouteNo="1" devices="tripinfo_f17.0 routing_f17.0" vType="car" speedFactor="1.09" vaporized=""/>
    <tripinfo id="f13.0" depart="0.00" departLane="42143912#5_0" departPos="4.30" departSpeed="0.00" departDelay="0.00" arrival="74.00" arrivalLane="337277957#0_0" arrivalPos="105.61" arrivalSpeed="8.22" duration="74.00" routeLength="363.20" waitingTime="19.00" waitingCount="1" stopTime="0.00" timeLoss="31.04" rerouteNo="1" devices="tripinfo_f13.0 routing_f13.0" vType="car" speedFactor="1.03" vaporized=""/>
    <tripinfo id="f3.0" depart="8.00" departLane="40668087#1_0" departPos="4.30" departSpeed="0.00" departDelay="8.00" arrival="83.00" arrivalLane="1053072563_0" arrivalPos="107.94" arrivalSpeed="7.27" duration="75.00" routeLength="423.31" waitingTime="4.00" waitingCount="1" stopTime="0.00" timeLoss="18.84" rerouteNo="1" devices="tripinfo_f3.0 routing_f3.0" vType="car" speedFactor="0.92" vaporized=""/>
    <tripinfo id="f10.0" depart="8.00" departLane="49217102_0" departPos="4.30" departSpeed="0.00" departDelay="8.00" arrival="85.00" arrivalLane="337277973#1_0" arrivalPos="76.89" arrivalSpeed="4.67" duration="77.00" routeLength="299.80" waitingTime="20.00" waitingCount="1" stopTime="0.00" timeLoss="34.72" rerouteNo="1" devices="tripinfo_f10.0 routing_f10.0" vType="car" speedFactor="0.86" vaporized=""/>
    <tripinfo id="f15.0" depart="9.00" departLane="42143912#5_0" departPos="4.30" departSpeed="0.00" departDelay="9.00" arrival="86.00" arrivalLane="1053072563_0" arrivalPos="107.94" arrivalSpeed="9.44" duration="77.00" routeLength="467.65" waitingTime="14.00" waitingCount="1" stopTime="0.00" timeLoss="27.89" rerouteNo="1" devices="tripinfo_f15.0 routing_f15.0" vType="car" speedFactor="1.17" vaporized=""/>
    <tripinfo id="f4.0" depart="12.00" departLane="40668087#1_0" departPos="4.30" departSpeed="0.00" departDelay="12.00" arrival="94.00" arrivalLane="337277973#1_1" arrivalPos="76.89" arrivalSpeed="7.19" duration="82.00" routeLength="391.16" waitingTime="4.00" waitingCount="2" stopTime="0.00" timeLoss="27.09" rerouteNo="1" devices="tripinfo_f4.0 routing_f4.0" vType="car" speedFactor="0.88" vaporized=""/>
    <tripinfo id="f16.0" depart="13.00" departLane="42143912#5_0" departPos="4.30" departSpeed="0.00" departDelay="13.00" arrival="98.00" arrivalLane="337277973#1_1" arrivalPos="76.89" arrivalSpeed="7.48" duration="85.00" routeLength="435.50" waitingTime="8.00" waitingCount="1" stopTime="0.00" timeLoss="28.05" rerouteNo="1" devices="tripinfo_f16.0 routing_f16.0" vType="car" speedFactor="0.93" vaporized=""/>
    <tripinfo id="f11.0" depart="12.00" departLane="49217102_0" departPos="4.30" departSpeed="0.00" departDelay="12.00" arrival="103.00" arrivalLane="337277984#0_0" arrivalPos="108.85" arrivalSpeed="11.51" duration="91.00" routeLength="425.84" waitingTime="19.00" waitingCount="1" stopTime="0.00" timeLoss="45.00" rerouteNo="1" devices="tripinfo_f11.0 routing_f11.0" vType="car" speedFactor="1.04" vaporized=""/>
    <tripinfo id="f5.0" depart="16.00" departLane="40668087#1_0" departPos="4.30" departSpeed="0.00" departDelay="16.00" arrival="110.00" arrivalLane="337277984#0_0" arrivalPos="108.85" arrivalSpeed="9.20" duration="94.00" routeLength="517.20" waitingTime="1.00" waitingCount="1" stopTime="0.00" timeLoss="26.52" rerouteNo="1" devices="tripinfo_f5.0 routing_f5.0" vType="car" speedFactor="0.88" vaporized=""/>
    <tripinfo id="f18.0" depart="4.00" departLane="567060342#0_0" departPos="4.30" departSpeed="0.00" departDelay="4.00" arrival="140.00" arrivalLane="542428845#0_0" arrivalPos="103.93" arrivalSpeed="7.88" duration="136.00" routeLength="420.30" waitingTime="61.00" waitingCount="3" stopTime="0.00" timeLoss="83.46" rerouteNo="1" devices="tripinfo_f18.0 routing_f18.0" vType="car" speedFactor="0.97" vaporized=""/>
    <tripinfo id="f12.0" depart="16.00" departLane="49217102_0" departPos="4.30" departSpeed="0.00" departDelay="16.00" arrival="143.00" arrivalLane="542428845#0_0" arrivalPos="103.93" arrivalSpeed="7.90" duration="127.00" routeLength="524.71" waitingTime="31.00" waitingCount="2" stopTime="0.00" timeLoss="59.49" rerouteNo="1" devices="tripinfo_f12.0 routing_f12.0" vType="car" speedFactor="0.95" vaporized=""/>
    <tripinfo id="f19.0" depart="8.00" departLane="567060342#0_0" departPos="4.30" departSpeed="0.00" departDelay="8.00" arrival="147.00" arrivalLane="337277957#0_1" arrivalPos="105.61" arrivalSpeed="9.82" duration="139.00" routeLength="513.28" waitingTime="57.00" waitingCount="3" stopTime="0.00" timeLoss="87.18" rerouteNo="1" devices="tripinfo_f19.0 routing_f19.0" vType="car" speedFactor="1.19" vaporized=""/>
    <tripinfo id="f8.1" depart="139.00" departLane="49217102_0" departPos="4.30" departSpeed="0.00" departDelay="0.54" arrival="167.00" arrivalLane="337277951#3_0" arrivalPos="38.80" arrivalSpeed="8.89" duration="28.00" routeLength="204.16" waitingTime="0.00" waitingCount="0" stopTime="0.00" timeLoss="4.90" rerouteNo="1" devices="tripinfo_f8.1 routing_f8.1" vType="car" speedFactor="1.07" vaporized=""/>
    <tripinfo id="f1.1" depart="139.00" departLane="40668087#1_0" departPos="4.30" departSpeed="0.00" departDelay="0.54" arrival="169.00" arrivalLane="542428845#0_0" arrivalPos="103.93" arrivalSpeed="8.80" duration="30.00" routeLength="217.05" waitingTime="0.00" waitingCount="0" stopTime="0.00" timeLoss="5.66" rerouteNo="0" devices="tripinfo_f1.1 routing_f1.1" vType="car" speedFactor="1.08" vaporized=""/>
    <tripinfo id="f13.1" depart="139.00" departLane="42143912#5_0" departPos="4.30" departSpeed="0.00" departDelay="0.54" arrival="186.00" arrivalLane="337277957#0_1" arrivalPos="105.61" arrivalSpeed="8.73" duration="47.00" routeLength="363.20" waitingTime="0.00" waitingCount="0" stopTime="0.00" timeLoss="5.87" rerouteNo="1" devices="tripinfo_f13.1 routing_f13.1" vType="car" speedFactor="1.07" vaporized=""/>
    <tripinfo id="f14.1" depart="143.00" departLane="42143912#5_0" departPos="4.30" departSpeed="0.00" departDelay="4.54" arrival="192.00" arrivalLane="542428845#0_0" arrivalPos="103.93" arrivalSpeed="5.80" duration="49.00" routeLength="270.22" waitingTime="0.00" waitingCount="0" stopTime="0.00" timeLoss="5.53" rerouteNo="1" devices="tripinfo_f14.1 routing_f14.1" vType="car" speedFactor="0.75" vaporized=""/>
    <tripinfo id="f9.1" depart="143.00" departLane="49217102_0" departPos="4.30" departSpeed="0.00" departDelay="4.54" arrival="202.00" arrivalLane="1053072563_0" arrivalPos="107.94" arrivalSpeed="9.29" duration="59.00" routeLength="331.95" waitingTime="9.00" waitingCount="1" stopTime="0.00" timeLoss="22.92" rerouteNo="1" devices="tripinfo_f9.1 routing_f9.1" vType="car" speedFactor="1.12" vaporized=""/>
    <tripinfo id="f15.1" depart="147.00" departLane="42143912#5_0" departPos="4.30" departSpeed="0.00" departDelay="8.54" arrival="212.00" arrivalLane="1053072563_0" arrivalPos="107.94" arrivalSpeed="7.95" duration="65.00" routeLength="467.65" waitingTime="0.00" waitingCount="0" stopTime="0.00" timeLoss="6.54" rerouteNo="1" devices="tripinfo_f15.1 routing_f15.1" vType="car" speedFactor="0.97" vaporized=""/>
    <tripinfo id="f6.1" depart="159.00" departLane="40668087#1_0" departPos="4.30" departSpeed="0.00" departDelay="20.54" arrival="213.00" arrivalLane="337277970#1_0" arrivalPos="79.16" arrivalSpeed="3.68" duration="54.00" routeLength="198.11" waitingTime="13.00" waitingCount="1" stopTime="0.00" timeLoss="32.29" rerouteNo="0" devices="tripinfo_f6.1 routing_f6.1" vType="car" speedFactor="1.10" vaporized=""/>
    <tripinfo id="f16.1" depart="151.00" departLane="42143912#5_0" departPos="4.30" departSpeed="0.00" departDelay="12.54" arrival="214.00" arrivalLane="337277973#1_1" arrivalPos="76.89" arrivalSpeed="7.70" duration="63.00" routeLength="435.50" waitingTime="0.00" waitingCount="0" stopTime="0.00" timeLoss="7.63" rerouteNo="1" devices="tripinfo_f16.1 routing_f16.1" vType="car" speedFactor="0.96" vaporized=""/>
    <tripinfo id="f17.1" depart="139.00" departLane="567060342#0_0" departPos="4.30" departSpeed="0.00" departDelay="0.54" arrival="220.00" arrivalLane="337277984#0_0" arrivalPos="108.85" arrivalSpeed="9.48" duration="81.00" routeLength="321.43" waitingTime="26.00" waitingCount="2" stopTime="0.00" timeLoss="41.52" rerouteNo="1" devices="tripinfo_f17.1 routing_f17.1" vType="car" speedFactor="0.89" vaporized=""/>
    <tripinfo id="f7.1" depart="163.00" departLane="40668087#1_0" departPos="4.30" departSpeed="0.00" departDelay="24.54" arrival="226.00" arrivalLane="337277951#1_1" arrivalPos="36.28" arrivalSpeed="7.83" duration="63.00" routeLength="245.81" waitingTime="10.00" waitingCount="1" stopTime="0.00" timeLoss="31.40" rerouteNo="1" devices="tripinfo_f7.1 routing_f7.1" vType="car" speedFactor="0.96" vaporized=""/>
    <tripinfo id="f2.1" depart="143.00" departLane="40668087#1_0" departPos="4.30" departSpeed="0.00" departDelay="4.54" arrival="229.00" arrivalLane="337277957#0_0" arrivalPos="105.61" arrivalSpeed="7.51" duration="86.00" routeLength="318.86" waitingTime="26.00" waitingCount="2" stopTime="0.00" timeLoss="43.45" rerouteNo="1" devices="tripinfo_f2.1 routing_f2.1" vType="car" speedFactor="0.91" vaporized=""/>
    <tripinfo id="f18.1" depart="143.00" departLane="567060342#0_0" departPos="4.30" departSpeed="0.00" departDelay="4.54" arrival="234.00" arrivalLane="542428845#0_0" arrivalPos="103.93" arrivalSpeed="8.20" duration="91.00" routeLength="420.30" waitingTime="22.00" waitingCount="2" stopTime="0.00" timeLoss="41.45" rerouteNo="1" devices="tripinfo_f18.1 routing_f18.1" vType="car" speedFactor="1.02" vaporized=""/>
    <tripinfo id="f10.1" depart="147.00" departLane="49217102_0" departPos="4.30" departSpeed="0.00" departDelay="8.54" arrival="242.00" arrivalLane="337277973#1_1" arrivalPos="76.89" arrivalSpeed="9.45" duration="95.00" routeLength="299.80" waitingTime="42.00" waitingCount="2" stopTime="0.00" timeLoss="62.14" rerouteNo="1" devices="tripinfo_f10.1 routing_f10.1" vType="car" speedFactor="1.14" vaporized=""/>
    <tripinfo id="f3.1" depart="147.00" departLane="40668087#1_0" departPos="4.30" departSpeed="0.00" departDelay="8.54" arrival="245.00" arrivalLane="1053072563_0" arrivalPos="107.94" arrivalSpeed="7.07" duration="98.00" routeLength="423.31" waitingTime="22.00" waitingCount="2" stopTime="0.00" timeLoss="42.09" rerouteNo="1" devices="tripinfo_f3.1 routing_f3.1" vType="car" speedFactor="0.92" vaporized=""/>
    <tripinfo id="f4.1" depart="151.00" departLane="40668087#1_0" departPos="4.30" departSpeed="0.00" departDelay="12.54" arrival="252.00" arrivalLane="337277973#1_1" arrivalPos="76.89" arrivalSpeed="7.89" duration="101.00" routeLength="391.16" waitingTime="23.00" waitingCount="3" stopTime="0.00" timeLoss="55.28" rerouteNo="1" devices="tripinfo_f4.1 routing_f4.1" vType="car" speedFactor="1.05" vaporized=""/>
    <tripinfo id="f11.1" depart="151.00" departLane="49217102_0" departPos="4.30" departSpeed="0.00" departDelay="12.54" arrival="255.00" arrivalLane="337277984#0_1" arrivalPos="108.85" arrivalSpeed="12.25" duration="104.00" routeLength="425.84" waitingTime="37.00" waitingCount="2" stopTime="0.00" timeLoss="60.59" rerouteNo="1" devices="tripinfo_f11.1 routing_f11.1" vType="car" speedFactor="1.10" vaporized=""/>
    <tripinfo id="f5.1" depart="155.00" departLane="40668087#1_0" departPos="4.30" departSpeed="0.00" departDelay="16.54" arrival="266.00" arrivalLane="337277984#0_0" arrivalPos="108.85" arrivalSpeed="11.23" duration="111.00" routeLength="517.20" waitingTime="21.00" waitingCount="3" stopTime="0.00" timeLoss="51.96" rerouteNo="1" devices="tripinfo_f5.1 routing_f5.1" vType="car" speedFactor="1.02" vaporized=""/>
    <tripinfo id="f19.1" depart="147.00" departLane="567060342#0_0" departPos="4.30" departSpeed="0.00" departDelay="8.54" arrival="273.00" arrivalLane="337277957#0_0" arrivalPos="105.61" arrivalSpeed="7.32" duration="126.00" routeLength="513.28" waitingTime="31.00" waitingCount="3" stopTime="0.00" timeLoss="56.36" rerouteNo="1" devices="tripinfo_f19.1 routing_f19.1" vType="car" speedFactor="0.89" vaporized=""/>
    <tripinfo id="f12.1" depart="155.00" departLane="49217102_0" departPos="4.30" departSpeed="0.00" departDelay="16.54" arrival="306.00" arrivalLane="542428845#0_0" arrivalPos="103.93" arrivalSpeed="6.73" duration="151.00" routeLength="524.71" waitingTime="49.00" waitingCount="3" stopTime="0.00" timeLoss="73.80" rerouteNo="1" devices="tripinfo_f12.1 routing_f12.1" vType="car" speedFactor="0.83" vaporized=""/>
    <tripinfo id="f1.2" depart="277.00" departLane="40668087#1_0" departPos="4.30" departSpeed="0.00" departDelay="0.08" arrival="322.00" arrivalLane="542428845#0_0" arrivalPos="103.93" arrivalSpeed="7.71" duration="45.00" routeLength="217.05" waitingTime="8.00" waitingCount="1" stopTime="0.00" timeLoss="18.08" rerouteNo="0" devices="tripinfo_f1.2 routing_f1.2" vType="car" speedFactor="0.97" vaporized=""/>
    <tripinfo id="f8.2" depart="277.00" departLane="49217102_0" departPos="4.30" departSpeed="0.00" departDelay="0.08" arrival="331.00" arrivalLane="337277951#3_0" arrivalPos="38.80" arrivalSpeed="9.42" duration="54.00" routeLength="204.16" waitingTime="21.00" waitingCount="1" stopTime="0.00" timeLoss="32.54" rerouteNo="1" devices="tripinfo_f8.2 routing_f8.2" vType="car" speedFactor="1.19" vaporized=""/>
    <tripinfo id="f6.2" depart="297.00" departLane="40668087#1_0" departPos="4.30" departSpeed="0.00" departDelay="20.08" arrival="345.00" arrivalLane="337277970#1_0" arrivalPos="79.16" arrivalSpeed="3.52" duration="48.00" routeLength="198.11" waitingTime="8.00" waitingCount="1" stopTime="0.00" timeLoss="21.69" rerouteNo="0" devices="tripinfo_f6.2 routing_f6.2" vType="car" speedFactor="0.91" vaporized=""/>
    <tripinfo id="f14.2" depart="281.00" departLane="42143912#5_0" departPos="4.30" departSpeed="0.00" departDelay="4.08" arrival="346.00" arrivalLane="542428845#0_0" arrivalPos="103.93" arrivalSpeed="8.99" duration="65.00" routeLength="270.22" waitingTime="16.00" waitingCount="2" stopTime="0.00" timeLoss="34.96" rerouteNo="1" devices="tripinfo_f14.2 routing_f14.2" vType="car" speedFactor="1.09" vaporized=""/>
    <tripinfo id="f17.2" depart="277.00" departLane="567060342#0_0" departPos="4.30" departSpeed="0.00" departDelay="0.08" arrival="348.00" arrivalLane="337277984#0_0" arrivalPos="108.85" arrivalSpeed="8.15" duration="71.00" routeLength="321.43" waitingTime="16.00" waitingCount="1" stopTime="0.00" timeLoss="24.66" rerouteNo="1" devices="tripinfo_f17.2 routing_f17.2" vType="car" speedFactor="0.77" vaporized=""/>
    <tripinfo id="f7.2" depart="301.00" departLane="40668087#1_0" departPos="4.30" departSpeed="0.00" departDelay="24.08" arrival="357.00" arrivalLane="337277951#1_1" arrivalPos="36.28" arrivalSpeed="7.65" duration="56.00" routeLength="245.81" waitingTime="12.00" waitingCount="1" stopTime="0.00" timeLoss="25.83" rerouteNo="1" devices="tripinfo_f7.2 routing_f7.2" vType="car" speedFactor="0.99" vaporized=""/>
    <tripinfo id="f2.2" depart="281.00" departLane="40668087#1_0" departPos="4.30" departSpeed="0.00" departDelay="4.08" arrival="361.00" arrivalLane="337277957#0_0" arrivalPos="105.61" arrivalSpeed="7.33" duration="80.00" routeLength="318.86" waitingTime="20.00" waitingCount="2" stopTime="0.00" timeLoss="38.42" rerouteNo="1" devices="tripinfo_f2.2 routing_f2.2" vType="car" speedFactor="0.94" vaporized=""/>
    <tripinfo id="f18.2" depart="281.00" departLane="567060342#0_0" departPos="4.30" departSpeed="0.00" departDelay="4.08" arrival="364.00" arrivalLane="542428845#0_0" arrivalPos="103.93" arrivalSpeed="7.14" duration="83.00" routeLength="420.30" waitingTime="14.00" waitingCount="1" stopTime="0.00" timeLoss="26.04" rerouteNo="1" devices="tripinfo_f18.2 routing_f18.2" vType="car" speedFactor="0.90" vaporized=""/>
    <tripinfo id="f13.2" depart="277.00" departLane="42143912#5_0" departPos="4.30" departSpeed="0.00" departDelay="0.08" arrival="368.00" arrivalLane="337277957#0_0" arrivalPos="105.61" arrivalSpeed="7.93" duration="91.00" routeLength="363.20" waitingTime="23.00" waitingCount="3" stopTime="0.00" timeLoss="47.80" rerouteNo="1" devices="tripinfo_f13.2 routing_f13.2" vType="car" speedFactor="1.02" vaporized=""/>
    <tripinfo id="f10.2" depart="285.00" departLane="49217102_0" departPos="4.30" departSpeed="0.00" departDelay="8.08" arrival="369.00" arrivalLane="337277973#1_1" arrivalPos="76.89" arrivalSpeed="7.83" duration="84.00" routeLength="299.80" waitingTime="28.00" waitingCount="2" stopTime="0.00" timeLoss="47.35" rerouteNo="1" devices="tripinfo_f10.2 routing_f10.2" vType="car" speedFactor="1.00" vaporized=""/>
    <tripinfo id="f19.2" depart="285.00" departLane="567060342#0_0" departPos="4.30" departSpeed="0.00" departDelay="8.08" arrival="374.00" arrivalLane="337277957#0_0" arrivalPos="105.61" arrivalSpeed="8.55" duration="89.00" routeLength="513.28" waitingTime="13.00" waitingCount="1" stopTime="0.00" timeLoss="30.58" rerouteNo="1" devices="tripinfo_f19.2 routing_f19.2" vType="car" speedFactor="1.06" vaporized=""/>
    <tripinfo id="f4.2" depart="289.00" departLane="40668087#1_0" departPos="4.30" departSpeed="0.00" departDelay="12.08" arrival="375.00" arrivalLane="337277973#1_1" arrivalPos="76.89" arrivalSpeed="8.71" duration="86.00" routeLength="391.16" waitingTime="15.00" waitingCount="2" stopTime="0.00" timeLoss="40.74" rerouteNo="1" devices="tripinfo_f4.2 routing_f4.2" vType="car" speedFactor="1.06" vaporized=""/>
    <tripinfo id="f9.2" depart="281.00" departLane="49217102_0" departPos="4.30" departSpeed="0.00" departDelay="4.08" arrival="376.00" arrivalLane="1053072563_0" arrivalPos="107.94" arrivalSpeed="5.87" duration="95.00" routeLength="331.95" waitingTime="27.00" waitingCount="2" stopTime="0.00" timeLoss="42.66" rerouteNo="1" devices="tripinfo_f9.2 routing_f9.2" vType="car" speedFactor="0.77" vaporized=""/>
    <tripinfo id="f3.2" depart="285.00" departLane="40668087#1_0" departPos="4.30" departSpeed="0.00" departDelay="8.08" arrival="378.00" arrivalLane="1053072563_0" arrivalPos="107.94" arrivalSpeed="8.06" duration="93.00" routeLength="423.31" waitingTime="17.00" waitingCount="2" stopTime="0.00" timeLoss="47.15" rerouteNo="1" devices="tripinfo_f3.2 routing_f3.2" vType="car" speedFactor="1.12" vaporized=""/>
    <tripinfo id="f16.2" depart="289.00" departLane="42143912#5_0" departPos="4.30" departSpeed="0.00" departDelay="12.08" arrival="380.00" arrivalLane="337277973#1_1" arrivalPos="76.89" arrivalSpeed="8.87" duration="91.00" routeLength="435.50" waitingTime="11.00" waitingCount="2" stopTime="0.00" timeLoss="43.67" rerouteNo="1" devices="tripinfo_f16.2 routing_f16.2" vType="car" speedFactor="1.12" vaporized=""/>
    <tripinfo id="f11.2" depart="289.00" departLane="49217102_0" departPos="4.30" departSpeed="0.00" departDelay="12.08" arrival="382.00" arrivalLane="337277984#0_0" arrivalPos="108.85" arrivalSpeed="11.44" duration="93.00" routeLength="425.84" waitingTime="27.00" waitingCount="2" stopTime="0.00" timeLoss="46.94" rerouteNo="1" devices="tripinfo_f11.2 routing_f11.2" vType="car" speedFactor="1.04" vaporized=""/>
    <tripinfo id="f15.2" depart="285.00" departLane="42143912#5_0" departPos="4.30" departSpeed="0.00" departDelay="8.08" arrival="387.00" arrivalLane="1053072563_0" arrivalPos="107.94" arrivalSpeed="7.00" duration="102.00" routeLength="467.65" waitingTime="13.00" waitingCount="3" stopTime="0.00" timeLoss="38.27" rerouteNo="1" devices="tripinfo_f15.2 routing_f15.2" vType="car" speedFactor="0.89" vaporized=""/>
    <tripinfo id="f5.2" depart="293.00" departLane="40668087#1_0" departPos="4.30" departSpeed="0.00" departDelay="16.08" arrival="388.00" arrivalLane="337277984#0_1" arrivalPos="108.85" arrivalSpeed="11.82" duration="95.00" routeLength="517.20" waitingTime="12.00" waitingCount="1" stopTime="0.00" timeLoss="40.08" rerouteNo="1" devices="tripinfo_f5.2 routing_f5.2" vType="car" speedFactor="1.08" vaporized=""/>
    <tripinfo id="f12.2" depart="293.00" departLane="49217102_0" departPos="4.30" departSpeed="0.00" departDelay="16.08" arrival="401.00" arrivalLane="542428845#0_0" arrivalPos="103.93" arrivalSpeed="8.31" duration="108.00" routeLength="524.71" waitingTime="25.00" waitingCount="2" stopTime="0.00" timeLoss="44.39" rerouteNo="1" devices="tripinfo_f12.2 routing_f12.2" vType="car" speedFactor="1.01" vaporized=""/>
    <tripinfo id="f1.3" depart="416.00" departLane="40668087#1_0" departPos="4.30" departSpeed="0.00" departDelay="0.61" arrival="454.00" arrivalLane="542428845#0_0" arrivalPos="103.93" arrivalSpeed="6.60" duration="38.00" routeLength="217.05" waitingTime="0.00" waitingCount="0" stopTime="0.00" timeLoss="5.56" rerouteNo="0" devices="tripinfo_f1.3 routing_f1.3" vType="car" speedFactor="0.81" vaporized=""/>
    <tripinfo id="f8.3" depart="416.00" departLane="49217102_0" departPos="4.30" departSpeed="0.00" departDelay="0.61" arrival="461.00" arrivalLane="337277951#3_0" arrivalPos="38.80" arrivalSpeed="7.00" duration="45.00" routeLength="204.16" waitingTime="6.00" waitingCount="1" stopTime="0.00" timeLoss="15.98" rerouteNo="1" devices="tripinfo_f8.3 routing_f8.3" vType="car" speedFactor="0.87" vaporized=""/>
    <tripinfo id="f14.3" depart="420.00" departLane="42143912#5_0" departPos="4.30" departSpeed="0.00" departDelay="4.61" arrival="474.00" arrivalLane="542428845#0_0" arrivalPos="103.93" arrivalSpeed="7.67" duration="54.00" routeLength="270.22" waitingTime="3.00" waitingCount="2" stopTime="0.00" timeLoss="19.03" rerouteNo="1" devices="tripinfo_f14.3 routing_f14.3" vType="car" speedFactor="0.93" vaporized=""/>
    <tripinfo id="f2.3" depart="420.00" departLane="40668087#1_0" departPos="4.30" departSpeed="0.00" departDelay="4.61" arrival="486.00" arrivalLane="337277957#0_0" arrivalPos="105.61" arrivalSpeed="8.85" duration="66.00" routeLength="318.86" waitingTime="16.00" waitingCount="1" stopTime="0.00" timeLoss="31.90" rerouteNo="1" devices="tripinfo_f2.3 routing_f2.3" vType="car" speedFactor="1.13" vaporized=""/>
    <tripinfo id="f6.3" depart="437.00" departLane="40668087#1_0" departPos="4.30" departSpeed="0.00" departDelay="21.61" arrival="494.00" arrivalLane="337277970#1_0" arrivalPos="79.16" arrivalSpeed="8.81" duration="57.00" routeLength="198.11" waitingTime="25.00" waitingCount="1" stopTime="0.00" timeLoss="35.72" rerouteNo="0" devices="tripinfo_f6.3 routing_f6.3" vType="car" speedFactor="1.13" vaporized=""/>
    <tripinfo id="f13.3" depart="416.00" departLane="42143912#5_0" departPos="4.30" departSpeed="0.00" departDelay="0.61" arrival="494.00" arrivalLane="337277957#0_0" arrivalPos="105.61" arrivalSpeed="7.75" duration="78.00" routeLength="363.20" waitingTime="7.00" waitingCount="3" stopTime="0.00" timeLoss="32.62" rerouteNo="1" devices="tripinfo_f13.3 routing_f13.3" vType="car" speedFactor="0.97" vaporized=""/>
    <tripinfo id="f9.3" depart="420.00" departLane="49217102_0" departPos="4.30" departSpeed="0.00" departDelay="4.61" arrival="498.00" arrivalLane="1053072563_0" arrivalPos="107.94" arrivalSpeed="8.48" duration="78.00" routeLength="331.95" waitingTime="18.00" waitingCount="2" stopTime="0.00" timeLoss="39.66" rerouteNo="1" devices="tripinfo_f9.3 routing_f9.3" vType="car" speedFactor="1.04" vaporized=""/>
    <tripinfo id="f3.3" depart="424.00" departLane="40668087#1_0" departPos="4.30" departSpeed="0.00" departDelay="8.61" arrival="500.00" arrivalLane="1053072563_0" arrivalPos="107.94" arrivalSpeed="8.35" duration="76.00" routeLength="423.31" waitingTime="13.00" waitingCount="2" stopTime="0.00" timeLoss="26.79" rerouteNo="1" devices="tripinfo_f3.3 routing_f3.3" vType="car" speedFactor="1.04" vaporized=""/>
    <tripinfo id="f10.3" depart="424.00" departLane="49217102_0" departPos="4.30" departSpeed="0.00" departDelay="8.61" arrival="500.00" arrivalLane="337277973#1_1" arrivalPos="76.89" arrivalSpeed="4.89" duration="76.00" routeLength="299.80" waitingTime="16.00" waitingCount="2" stopTime="0.00" timeLoss="38.84" rerouteNo="1" devices="tripinfo_f10.3 routing_f10.3" vType="car" speedFactor="0.98" vaporized=""/>
    <tripinfo id="f4.3" depart="429.00" departLane="40668087#1_0" departPos="4.30" departSpeed="0.00" departDelay="13.61" arrival="507.00" arrivalLane="337277973#1_1" arrivalPos="76.89" arrivalSpeed="7.57" duration="78.00" routeLength="391.16" waitingTime="10.00" waitingCount="1" stopTime="0.00" timeLoss="32.87" rerouteNo="1" devices="tripinfo_f4.3 routing_f4.3" vType="car" speedFactor="1.07" vaporized=""/>
    <tripinfo id="f15.3" depart="424.00" departLane="42143912#5_0" departPos="4.30" departSpeed="0.00" departDelay="8.61" arrival="509.00" arrivalLane="1053072563_0" arrivalPos="107.94" arrivalSpeed="7.83" duration="85.00" routeLength="467.65" waitingTime="4.00" waitingCount="2" stopTime="0.00" timeLoss="28.73" rerouteNo="1" devices="tripinfo_f15.3 routing_f15.3" vType="car" speedFactor="1.01" vaporized=""/>